 vasp.6.5.1 10Mar25 (build May 31 2025 23:02:25) complex                        
  
 executed on             LinuxIFC date 2026.01.18  23:08:27
 running    4 mpi-ranks, with    1 threads/rank, on    1 nodes
 distrk:  each k-point on    4 cores,    1 groups
 distr:  one band on NCORE=   1 cores,    4 groups


--------------------------------------------------------------------------------------------------------


 INCAR:
   ENCUT = 520.000000
   KSPACING = 0.400000
   SIGMA = 0.050000
   EDIFF = 1.00e-05
   EDIFFG = -3.00e-02
   ALGO = fast
   GGA = PE
   PREC = accurate
   EFERMI = midgap
   IBRION = 2
   ISIF = 3
   ISMEAR = 0
   LORBIT = 11
   NSW = 100
   IVDW = 0
   LASPH = .TRUE.
   GGA_COMPAT = .FALSE.
   ISPIN = 2
   MAGMOM = 2*4.0000

 POTCAR:    PAW_PBE Fe 06Sep2000                  
 POTCAR:    PAW_PBE Fe 06Sep2000                  
   SHA256 =  cd5a22d9368cc8b5cc476bea79732366149640da08ac9009b0e1b7fc627eea28 Fe/POTCAR             
   COPYR  = (c) Copyright 06Sep2000 Georg Kresse                                                    
   COPYR  = This file is part of the software VASP. Any use, copying, and all other rights are regul
   COPYR  = If you do not have a valid VASP license, you may not use, copy or distribute this file. 
   VRHFIN =Fe:  d7 s1                                                                               
   LEXCH  = PE                                                                                      
   EATOM  =   594.3153 eV,   43.6809 Ry                                                             
                                                                                                    
   TITEL  = PAW_PBE Fe 06Sep2000                                                                    
   LULTRA =        F    use ultrasoft PP ?                                                          
   IUNSCR =        1    unscreen: 0-lin 1-nonlin 2-no                                               
   RPACOR =    2.000    partial core radius                                                         
   POMASS =   55.847; ZVAL   =    8.000    mass and valenz                                          
   RCORE  =    2.300    outmost cutoff radius                                                       
   RWIGS  =    2.460; RWIGS  =    1.302    wigner-seitz radius (au A)                               
   ENMAX  =  267.882; ENMIN  =  200.911 eV                                                          
   RCLOC  =    1.701    cutoff for local pot                                                        
   LCOR   =        T    correct aug charges                                                         
   LPAW   =        T    paw PP                                                                      
   EAUG   =  511.368                                                                                
   DEXC   =    0.000                                                                                
   RMAX   =    2.356    core radius for proj-oper                                                   
   RAUG   =    1.300    factor for augmentation sphere                                              
   RDEP   =    2.442    radius for radial grids                                                     
   RDEPT  =    1.890    core radius for aug-charge                                                  
                                                                                                    
   Atomic configuration                                                                             
    9 entries                                                                                       
     n  l   j            E        occ.                                                              
     1  0  0.50     -6993.8440   2.0000                                                             
     2  0  0.50      -814.6047   2.0000                                                             
     2  1  1.50      -693.3689   6.0000                                                             
     3  0  0.50       -89.4732   2.0000                                                             
     3  1  1.50       -55.6373   6.0000                                                             
     3  2  2.50        -3.8151   7.0000                                                             
     4  0  0.50        -4.2551   1.0000                                                             
     4  1  1.50        -3.4015   0.0000                                                             
     4  3  2.50        -1.3606   0.0000                                                             
   Description                                                                                      
     l       E           TYP  RCUT    TYP  RCUT                                                     
     2     -3.8151135     23  2.300                                                                 
     2     -5.1756961     23  2.300                                                                 
     0     -4.2550963     23  2.300                                                                 
     0      7.2035603     23  2.300                                                                 
     1     -2.7211652     23  2.300                                                                 
     1     18.4316424     23  2.300                                                                 
  local pseudopotential read in
  partial core-charges read in
  partial kinetic energy density read in
  atomic valenz-charges read in
  non local Contribution for L=           2  read in
    real space projection operators read in
  non local Contribution for L=           2  read in
    real space projection operators read in
  non local Contribution for L=           0  read in
    real space projection operators read in
  non local Contribution for L=           0  read in
    real space projection operators read in
  non local Contribution for L=           1  read in
    real space projection operators read in
  non local Contribution for L=           1  read in
    real space projection operators read in
    PAW grid and wavefunctions read in
 
   number of l-projection  operators is LMAX  =           6
   number of lm-projection operators is LMMAX =          18
 
  PAW_PBE Fe 06Sep2000                  :
 energy of atom  1       EATOM= -594.3153
 kinetic energy error for atom=    0.0026 (will be added to EATOM!!)
 
 
 POSCAR: Fe
  positions in cartesian coordinates
  No initial velocities read in


 exchange-correlation table for PE
   RHO(1)=    0.500       N(1)  =     2000
   RHO(2)=  100.500       N(2)  =     4000
 


--------------------------------------------------------------------------------------------------------


 ion  position               nearest neighbor table
   1  0.000  0.000  0.000-   2 2.48   2 2.48   2 2.48   2 2.48   2 2.48   2 2.48   2 2.48   2 2.48

   2  0.500  0.500  0.500-   1 2.48   1 2.48   1 2.48   1 2.48   1 2.48   1 2.48   1 2.48   1 2.48

 
  LATTYP: Found a simple cubic cell.
 ALAT       =     2.8630355000
  
  Lattice vectors:
  
 A1 = (   2.8630355000,   0.0000000000,   0.0000000000)
 A2 = (   0.0000000000,   2.8630355000,   0.0000000000)
 A3 = (   0.0000000000,   0.0000000000,   2.8630355000)


Analysis of symmetry for initial positions (statically):
=====================================================================
 Subroutine PRICEL returns following result:
 
  LATTYP: Found a body centered cubic cell.
 ALAT       =     2.8630355000
  
  Lattice vectors:
  
 A1 = (   1.4315177500,   1.4315177500,  -1.4315177500)
 A2 = (  -1.4315177500,   1.4315177500,   1.4315177500)
 A3 = (   1.4315177500,  -1.4315177500,   1.4315177500)
 
   2 primitive cells build up your supercell.
 

 Routine SETGRP: Setting up the symmetry group for a 
 simple cubic supercell.


 Subroutine GETGRP returns: Found 48 space group operations
 (whereof 48 operations were pure point group operations)
 out of a pool of 48 trial point group operations.


The static configuration has the point symmetry O_h .


Analysis of symmetry for dynamics (positions and initial velocities):
=====================================================================
 Subroutine PRICEL returns following result:
 
  LATTYP: Found a body centered cubic cell.
 ALAT       =     2.8630355000
  
  Lattice vectors:
  
 A1 = (   1.4315177500,   1.4315177500,  -1.4315177500)
 A2 = (  -1.4315177500,   1.4315177500,   1.4315177500)
 A3 = (   1.4315177500,  -1.4315177500,   1.4315177500)
 
   2 primitive cells build up your supercell.
 

 Routine SETGRP: Setting up the symmetry group for a 
 simple cubic supercell.


 Subroutine GETGRP returns: Found 48 space group operations
 (whereof 48 operations were pure point group operations)
 out of a pool of 48 trial point group operations.


The dynamic configuration has the point symmetry O_h .


Analysis of structural, dynamic, and magnetic symmetry:
=====================================================================
 Subroutine PRICEL returns following result:
 
  LATTYP: Found a body centered cubic cell.
 ALAT       =     2.8630355000
  
  Lattice vectors:
  
 A1 = (   1.4315177500,   1.4315177500,  -1.4315177500)
 A2 = (  -1.4315177500,   1.4315177500,   1.4315177500)
 A3 = (   1.4315177500,  -1.4315177500,   1.4315177500)
 
   2 primitive cells build up your supercell.
 

 Routine SETGRP: Setting up the symmetry group for a 
 simple cubic supercell.


 Subroutine GETGRP returns: Found 48 space group operations
 (whereof 48 operations were pure point group operations)
 out of a pool of 48 trial point group operations.


The overall configuration has the point symmetry O_h .


 Subroutine INISYM returns: Found 48 space group operations
 (whereof 48 operations are pure point group operations),
 and found     2 'primitive' translations


----------------------------------------------------------------------------------------

                                     Primitive cell                                     

  volume of cell :      11.7341

  direct lattice vectors                    reciprocal lattice vectors
     1.431517750  1.431517750 -1.431517750     0.349279637  0.349279637 -0.000000000
    -1.431517750  1.431517750  1.431517750    -0.000000000  0.349279637  0.349279637
     1.431517750 -1.431517750  1.431517750     0.349279637 -0.000000000  0.349279637

  length of vectors
     2.479461475  2.479461475  2.479461475     0.493956000  0.493956000  0.493956000

  position of ions in fractional coordinates (direct lattice)
     0.000000000  0.000000000  0.000000000

  ion indices of the primitive-cell ions
   primitive index   ion index
                 1           1

----------------------------------------------------------------------------------------

 
 -----------------------------------------------------------------------------
|                                                                             |
|           W    W    AA    RRRRR   N    N  II  N    N   GGGG   !!!           |
|           W    W   A  A   R    R  NN   N  II  NN   N  G    G  !!!           |
|           W    W  A    A  R    R  N N  N  II  N N  N  G       !!!           |
|           W WW W  AAAAAA  RRRRR   N  N N  II  N  N N  G  GGG   !            |
|           WW  WW  A    A  R   R   N   NN  II  N   NN  G    G                |
|           W    W  A    A  R    R  N    N  II  N    N   GGGG   !!!           |
|                                                                             |
|     The requested file  could not be found or opened for reading            |
|     k-point information. Automatic k-point generation is used as a          |
|     fallback, which may lead to unwanted results.                           |
|                                                                             |
 -----------------------------------------------------------------------------

 

Automatic generation of k-mesh.
 Grid dimensions derived from KSPACING:
 generate k-points for:    6    6    6

 Generating k-lattice:

  Cartesian coordinates                     Fractional coordinates (reciprocal lattice)
     0.058213273  0.000000000  0.000000000     0.166666667  0.000000000  0.000000000
     0.000000000  0.058213273  0.000000000     0.000000000  0.166666667  0.000000000
     0.000000000  0.000000000  0.058213273     0.000000000  0.000000000  0.166666667

  Length of vectors
     0.058213273  0.058213273  0.058213273

  Shift w.r.t. Gamma in fractional coordinates (k-lattice)
     0.000000000  0.000000000  0.000000000

 
 Subroutine IBZKPT returns following result:
 ===========================================
 
 Found     20 irreducible k-points:
 
 Following reciprocal coordinates:
            Coordinates               Weight
  0.000000  0.000000  0.000000      1.000000
  0.166667  0.000000  0.000000      6.000000
  0.333333  0.000000  0.000000      6.000000
  0.500000  0.000000  0.000000      3.000000
  0.166667  0.166667  0.000000     12.000000
  0.333333  0.166667  0.000000     24.000000
  0.500000  0.166667  0.000000     12.000000
  0.333333  0.333333  0.000000     12.000000
  0.500000  0.333333  0.000000     12.000000
  0.500000  0.500000  0.000000      3.000000
  0.166667  0.166667  0.166667      8.000000
  0.333333  0.166667  0.166667     24.000000
  0.500000  0.166667  0.166667     12.000000
  0.333333  0.333333  0.166667     24.000000
  0.500000  0.333333  0.166667     24.000000
  0.500000  0.500000  0.166667      6.000000
  0.333333  0.333333  0.333333      8.000000
  0.500000  0.333333  0.333333     12.000000
  0.500000  0.500000  0.333333      6.000000
  0.500000  0.500000  0.500000      1.000000
 
 Following cartesian coordinates:
            Coordinates               Weight
  0.000000  0.000000  0.000000      1.000000
  0.058213  0.000000  0.000000      6.000000
  0.116427  0.000000  0.000000      6.000000
  0.174640  0.000000  0.000000      3.000000
  0.058213  0.058213  0.000000     12.000000
  0.116427  0.058213  0.000000     24.000000
  0.174640  0.058213  0.000000     12.000000
  0.116427  0.116427  0.000000     12.000000
  0.174640  0.116427  0.000000     12.000000
  0.174640  0.174640  0.000000      3.000000
  0.058213  0.058213  0.058213      8.000000
  0.116427  0.058213  0.058213     24.000000
  0.174640  0.058213  0.058213     12.000000
  0.116427  0.116427  0.058213     24.000000
  0.174640  0.116427  0.058213     24.000000
  0.174640  0.174640  0.058213      6.000000
  0.116427  0.116427  0.116427      8.000000
  0.174640  0.116427  0.116427     12.000000
  0.174640  0.174640  0.116427      6.000000
  0.174640  0.174640  0.174640      1.000000
 


--------------------------------------------------------------------------------------------------------




 Dimension of arrays:
   k-points           NKPTS =     20   k-points in BZ     NKDIM =     20   number of bands    NBANDS=     16
   number of dos      NEDOS =    301   number of ions     NIONS =      2
   non local maximal  LDIM  =      6   non local SUM 2l+1 LMDIM =     18
   total plane-waves  NPLWV =  13824
   max r-space proj   IRMAX =      1   max aug-charges    IRDMAX=  21180
   dimension x,y,z NGX =    24 NGY =   24 NGZ =   24
   dimension x,y,z NGXF=    48 NGYF=   48 NGZF=   48
   support grid    NGXF=    48 NGYF=   48 NGZF=   48
   ions per type =               2
   NGX,Y,Z   is equivalent  to a cutoff of  13.94, 13.94, 13.94 a.u.
   NGXF,Y,Z  is equivalent  to a cutoff of  27.87, 27.87, 27.87 a.u.

 SYSTEM =  unknown system                          
 POSCAR =  Fe                                      

 Startparameter for this run:
   NWRITE =      2    write-flag & timer
   PREC   = accura    normal or accurate (medium, high low for compatibility)
   ISTART =      1    job   : 0-new  1-cont  2-samecut
   ICHARG =      0    charge: 1-file 2-atom 10-const
   ISPIN  =      2    spin polarized calculation?
   LNONCOLLINEAR =      F non collinear calculations
   LSORBIT =      F    spin-orbit coupling
   INIWAV =      1    electr: 0-lowe 1-rand  2-diag
   LASPH  =      T    aspherical Exc in radial PAW
 Electronic Relaxation 1
   ENCUT  =  520.0 eV  38.22 Ry    6.18 a.u.   5.32  5.32  5.32*2*pi/ulx,y,z
   ENINI  =  520.0     initial cutoff
   ENAUG  =  511.4 eV  augmentation charge cutoff
   NELM   =     60;   NELMIN=  2; NELMDL=  0     # of ELM steps 
   EDIFF  = 0.1E-04   stopping-criterion for ELM
   LREAL  =      F    real-space projection
   NLSPLINE    = F    spline interpolate recip. space projectors
   LCOMPAT=      F    compatible to vasp.4.4
   GGA_COMPAT  = F    GGA compatible to vasp.4.4-vasp.4.6
   LMAXPAW     = -100 max onsite density
   LMAXMIX     =    2 max onsite mixed and CHGCAR
   VOSKOWN=      0    Vosko Wilk Nusair interpolation
   ROPT   =    0.00000
 Ionic relaxation
   EDIFFG = -.3E-01   stopping-criterion for IOM
   NSW    =    100    number of steps for IOM
   NBLOCK =      1;   KBLOCK =    100    inner block; outer block 
   IBRION =      2    ionic relax: 0-MD 1-quasi-New 2-CG
   NFREE  =      1    steps in history (QN), initial steepest desc. (CG)
   ISIF   =      3    stress and relaxation
   IWAVPR =     11    prediction:  0-non 1-charg 2-wave 3-comb
   ISYM   =      2    0-nonsym 1-usesym 2-fastsym
   LCORR  =      T    Harris-Foulkes like correction to forces

   POTIM  = 0.5000    time-step for ionic-motion
   TEIN   =    0.0    initial temperature
   TEBEG  =    0.0;   TEEND  =   0.0 temperature during run
   SMASS  =  -3.00    Nose mass-parameter (am)
   estimated Nose-frequenzy (Omega)   =  0.10E-29 period in steps = 0.13E+47 mass=  -0.187E-27a.u.
   SCALEE = 1.0000    scale energy and forces
   NPACO  =    256;   APACO  = 10.0  distance and # of slots for P.C.
   PSTRESS=    0.0 pullay stress

  Mass of Ions in am
   POMASS =  55.85
  Ionic Valenz
   ZVAL   =   8.00
  Atomic Wigner-Seitz radii
   RWIGS  =  -1.00
  virtual crystal weights 
   VCA    =   1.00
   NELECT =      16.0000    total number of electrons
   NUPDOWN=      -1.0000    fix difference up-down

 DOS related values:
   EMIN   =  10.00;   EMAX   =-10.00  energy-range for DOS
   EFERMI =   0.00;   METHOD = MIDGAP      
   ISMEAR =     0;   SIGMA  =   0.05  broadening in eV -4-tet -1-fermi 0-gaus
   EFERMI_NEDOS =   21; number of points for ismear=-14 and -15

 Electronic relaxation 2 (details)
   IALGO  =     68    algorithm
   LDIAG  =      T    sub-space diagonalisation (order eigenvalues)
   LSUBROT=      F    optimize rotation matrix (better conditioning)
   LROBUST=      F    robust break criterion during scf (extrapolated energy error)
   ISEARCH=      0    line search for conjugate gradient (0, 1=use gradient)
   TURBO    =      0    0=normal 1=particle mesh
   IRESTART =      0    0=no restart 2=restart with 2 vectors
   NREBOOT  =      0    no. of reboots
   NMIN     =      0    reboot dimension
   EREF     =   0.00    reference energy to select bands
   IMIX   =      4    mixing-type and parameters
     AMIX     =   0.40;   BMIX     =  1.00
     AMIX_MAG =   1.60;   BMIX_MAG =  1.00
     AMIN     =   0.10
     WC   =   100.;   INIMIX=   1;  MIXPRE=   1;  MAXMIX= -45

 Intra band minimization:
   WEIMIN = 0.0010     energy-eigenvalue tresh-hold
   EBREAK =  0.16E-06  absolut break condition
   DEPER  =   0.30     relativ break condition  

   TIME   =   0.40     timestep for ELM

  volume/ion in A,a.u.               =      11.73        79.19
  Fermi-wavevector in a.u.,A,eV,Ry     =   1.440859  2.722828 28.246703  2.076074
  Thomas-Fermi vector in A             =   2.559556
 
 Write flags
   LWAVE        =      T    write WAVECAR
   LDOWNSAMPLE  =      F    k-point downsampling of WAVECAR
   LCHARG       =      T    write CHGCAR
   LVTOT        =      F    write LOCPOT, total local potential
   LVHAR        =      F    write LOCPOT, Hartree potential only
   WRT_POTENTIAL= false  ! write potential to hdf5 file
   LELF         =      F    write electronic localiz. function (ELF)
   LORBIT       =     11    0 simple, 1 ext, 2 COOP (PROOUT), +10 PAW based schemes


 Python interface
   PLUGINS active      =      F    recompile with -DPLUGINS to activate
 
 Dipole corrections
   LMONO      =      F    monopole corrections only (constant potential shift)
   LDIPOL     =      F    correct potential (dipole corrections)
   IDIPOL     =      0    1-x, 2-y, 3-z, 4-all directions 
   EPSILON    =  1.0000000 bulk dielectric constant
   LVACPOTAV  =      F  vacuum potentials using an averaging scheme for the charge density
   VACPOTFLAT =  0.1000000 required flatness to determine vacuum potential
 
Coulomb truncation method
  LTRUNCATE          =      F  Coulomb kernel truncation to be used

 
 Exchange correlation treatment:
   GGA     = PE    functional components
   XC_C    = 1    coefficients multiplying the functional components
   LIBXC   =     F    Libxc                    
   VOSKOWN =     0    Vosko Wilk Nusair interpolation
   LHFCALC =     F    Hartree Fock is set to
   LHFONE  =     F    Hartree Fock one center treatment
   AEXX    =    0.0000 exact exchange contribution

 Parameters of functionals:
   PE:
     No parameter
 
 Van der Waals corrections
   IVDW    =     0    specifies the selected vdW correction

 Linear response parameters
   LEPSILON=     F    determine dielectric tensor
   LRPA    =     F    only Hartree local field effects (RPA)
   LNABLA  =     F    use nabla operator in PAW spheres
   LVEL    =     F    velocity operator in full k-point grid
   CSHIFT  =0.1000    complex shift for real part using Kramers Kronig
   OMEGAMAX=  -1.0    maximum frequency
   DEG_THRESHOLD= 0.2000000E-02 threshold for treating states as degnerate
   RTIME   =   -0.100 relaxation time in fs
  (WPLASMAI=    0.000 imaginary part of plasma frequency in eV, 0.658/RTIME)
   DFIELD  = 0.0000000 0.0000000 0.0000000 field for delta impulse in time
 
  Optional k-point grid parameters
   LKPOINTS_OPT  =     F    use optional k-point grid
   KPOINTS_OPT_MODE=     1    mode for optional k-point grid
 
 Orbital magnetization related:
   ORBITALMAG=     F  switch on orbital magnetization
   LCHIMAG   =     F  perturbation theory with respect to B field
   DQ        =  0.001000  dq finite difference perturbation B field
   LLRAUG    =     F  two centre corrections for induced B field
   LBONE     =     F  B-component reconstruction in AE one-centre
   LVGVCALC  =     T  calculate vGv susceptibility
   LVGVAPPL  =     F  apply vGv susceptibility instead of pGv for G=0

 Random number generation:
   RANDOM_GENERATOR = DEFAULT
   PCG_SEED         = not used


--------------------------------------------------------------------------------------------------------


 conjugate gradient relaxation of ions
 charge density and potential will be updated during run
 spin polarized calculation
 RMM-DIIS sequential band-by-band and
  variant of blocked Davidson during initial phase
 perform sub-space diagonalisation
    before iterative eigenvector-optimisation
 modified Broyden-mixing scheme, WC =      100.0
 initial mixing is a Kerker type mixing with AMIX =  0.4000 and BMIX =      1.0000
 Hartree-type preconditioning will be used
 using additional bands            8
 reciprocal scheme for non local part
 use partial core corrections
 calculate Harris-corrections to forces 
   (improved forces if not selfconsistent)
 use gradient corrections 
 use of overlap-Matrix (Vanderbilt PP)
 Gauss-broadening in eV      SIGMA  =   0.05


--------------------------------------------------------------------------------------------------------


  energy-cutoff  :      520.00
  volume of cell :       23.47
      direct lattice vectors                 reciprocal lattice vectors
     2.863035500  0.000000000  0.000000000     0.349279637  0.000000000  0.000000000
     0.000000000  2.863035500  0.000000000     0.000000000  0.349279637  0.000000000
     0.000000000  0.000000000  2.863035500     0.000000000  0.000000000  0.349279637

  length of vectors
     2.863035500  2.863035500  2.863035500     0.349279637  0.349279637  0.349279637


 
 old parameters found on file WAVECAR:
  energy-cutoff  :      520.00
  volume of cell :       23.47
      direct lattice vectors                 reciprocal lattice vectors
     2.863035500  0.000000000  0.000000000     0.349279637  0.000000000  0.000000000
     0.000000000  2.863035500  0.000000000     0.000000000  0.349279637  0.000000000
     0.000000000  0.000000000  2.863035500     0.000000000  0.000000000  0.349279637

  length of vectors

 
 k-points in units of 2pi/SCALE and weight: read from INCAR                         
   0.00000000  0.00000000  0.00000000       0.005
   0.05821327  0.00000000  0.00000000       0.028
   0.11642655  0.00000000  0.00000000       0.028
   0.17463982  0.00000000  0.00000000       0.014
   0.05821327  0.05821327  0.00000000       0.056
   0.11642655  0.05821327  0.00000000       0.111
   0.17463982  0.05821327  0.00000000       0.056
   0.11642655  0.11642655  0.00000000       0.056
   0.17463982  0.11642655  0.00000000       0.056
   0.17463982  0.17463982  0.00000000       0.014
   0.05821327  0.05821327  0.05821327       0.037
   0.11642655  0.05821327  0.05821327       0.111
   0.17463982  0.05821327  0.05821327       0.056
   0.11642655  0.11642655  0.05821327       0.111
   0.17463982  0.11642655  0.05821327       0.111
   0.17463982  0.17463982  0.05821327       0.028
   0.11642655  0.11642655  0.11642655       0.037
   0.17463982  0.11642655  0.11642655       0.056
   0.17463982  0.17463982  0.11642655       0.028
   0.17463982  0.17463982  0.17463982       0.005
 
 k-points in reciprocal lattice and weights: read from INCAR                         
   0.00000000  0.00000000  0.00000000       0.005
   0.16666667  0.00000000  0.00000000       0.028
   0.33333333  0.00000000  0.00000000       0.028
   0.50000000  0.00000000  0.00000000       0.014
   0.16666667  0.16666667  0.00000000       0.056
   0.33333333  0.16666667  0.00000000       0.111
   0.50000000  0.16666667  0.00000000       0.056
   0.33333333  0.33333333  0.00000000       0.056
   0.50000000  0.33333333  0.00000000       0.056
   0.50000000  0.50000000  0.00000000       0.014
   0.16666667  0.16666667  0.16666667       0.037
   0.33333333  0.16666667  0.16666667       0.111
   0.50000000  0.16666667  0.16666667       0.056
   0.33333333  0.33333333  0.16666667       0.111
   0.50000000  0.33333333  0.16666667       0.111
   0.50000000  0.50000000  0.16666667       0.028
   0.33333333  0.33333333  0.33333333       0.037
   0.50000000  0.33333333  0.33333333       0.056
   0.50000000  0.50000000  0.33333333       0.028
   0.50000000  0.50000000  0.50000000       0.005
 
 position of ions in fractional coordinates (direct lattice) 
   0.00000000  0.00000000  0.00000000
   0.50000000  0.50000000  0.50000000
 
 position of ions in cartesian coordinates  (Angst):
   0.00000000  0.00000000  0.00000000
   1.43151775  1.43151775  1.43151775
 


--------------------------------------------------------------------------------------------------------


 k-point     1 :   0.0000 0.0000 0.0000  plane waves:     619
 k-point     2 :   0.1667 0.0000 0.0000  plane waves:     635
 k-point     3 :   0.3333 0.0000 0.0000  plane waves:     638
 k-point     4 :   0.5000 0.0000 0.0000  plane waves:     642
 k-point     5 :   0.1667 0.1667 0.0000  plane waves:     633
 k-point     6 :   0.3333 0.1667 0.0000  plane waves:     633
 k-point     7 :   0.5000 0.1667 0.0000  plane waves:     632
 k-point     8 :   0.3333 0.3333 0.0000  plane waves:     634
 k-point     9 :   0.5000 0.3333 0.0000  plane waves:     624
 k-point    10 :   0.5000 0.5000 0.0000  plane waves:     624
 k-point    11 :   0.1667 0.1667 0.1667  plane waves:     645
 k-point    12 :   0.3333 0.1667 0.1667  plane waves:     633
 k-point    13 :   0.5000 0.1667 0.1667  plane waves:     642
 k-point    14 :   0.3333 0.3333 0.1667  plane waves:     625
 k-point    15 :   0.5000 0.3333 0.1667  plane waves:     624
 k-point    16 :   0.5000 0.5000 0.1667  plane waves:     628
 k-point    17 :   0.3333 0.3333 0.3333  plane waves:     627
 k-point    18 :   0.5000 0.3333 0.3333  plane waves:     630
 k-point    19 :   0.5000 0.5000 0.3333  plane waves:     648
 k-point    20 :   0.5000 0.5000 0.5000  plane waves:     624

 maximum and minimum number of plane-waves per node :       648      619

 maximum number of plane-waves:       648
 maximum index in each direction: 
   IXMAX=    5   IYMAX=    5   IZMAX=    5
   IXMIN=   -5   IYMIN=   -5   IZMIN=   -5


 serial   3D FFT for wavefunctions
 parallel 3D FFT for charge:
    minimum data exchange during FFTs selected (reduces bandwidth)


 total amount of memory used by VASP MPI-rank0    37902. kBytes
=======================================================================

   base                                    :      30000. kBytes
   nonl-proj                               :       1886. kBytes
   fftplans                                :       1024. kBytes
   grid                                    :       3179. kBytes
   one-center                              :         62. kBytes
   wavefun                                 :       1751. kBytes
 
     INWAV:  cpu time      0.0159: real time      0.0160
 Broyden mixing: mesh for mixing (old mesh)
   NGX = 11   NGY = 11   NGZ = 11
  (NGX  = 48   NGY  = 48   NGZ  = 48)
  gives a total of   1331 points

 charge density for first step will be calculated from the start-wavefunctions


--------------------------------------------------------------------------------------------------------


 Maximum index for augmentation-charges         5053 (set IRDMAX)


--------------------------------------------------------------------------------------------------------


 initial charge from wavefunction
 First call to EWALD:  gamma=   0.619
 Maximum number of real-space cells   3x   3x   3
 Maximum number of reciprocal cells   3x   3x   3

    FEWALD:  cpu time      0.0008: real time      0.0008


--------------------------------------- Ionic step        1  -------------------------------------------




--------------------------------------- Iteration      1(   1)  ---------------------------------------


    POTLOK:  cpu time      0.0265: real time      0.0267
    SETDIJ:  cpu time      0.1350: real time      0.1353
     EDDAV:  cpu time      0.1325: real time      0.1332
       DOS:  cpu time      0.0003: real time      0.0003
    CHARGE:  cpu time      0.0240: real time      0.0240
    MIXING:  cpu time      0.0011: real time      0.0012
    --------------------------------------------
      LOOP:  cpu time      0.3194: real time      0.3207

 eigenvalue-minimisations  :  1280
 total energy-change (2. order) :-0.1791398E+02  (-0.9114971E+00)
 number of electron      15.9999993 magnetization       4.9802625
 augmentation part        9.1996238 magnetization       4.1596927

 Broyden mixing:
  rms(total) = 0.14511E+01    rms(broyden)= 0.14511E+01
  rms(prec ) = 0.26862E+01
  weight for this iteration     100.00

 Free energy of the ion-electron system (eV)
  ---------------------------------------------------
  alpha Z        PSCENC =       117.79976207
  Ewald energy   TEWEN  =     -1171.43779554
  -Hartree energ DENC   =      -179.89192967
  -exchange      EXHF   =         0.00000000
  -V(xc)+E(xc)   XCENC  =         7.47210229
  PAW double counting   =      1372.61624536    -1384.91365658
  entropy T*S    EENTRO =        -0.00384541
  eigenvalues    EBANDS =        31.81978088
  atomic energy  EATOM  =      1188.62536141
  Solvation  Ediel_sol  =         0.00000000
  ---------------------------------------------------
  free energy    TOTEN  =       -17.91397519 eV

  energy without entropy =      -17.91012978  energy(sigma->0) =      -17.91205249


--------------------------------------------------------------------------------------------------------




--------------------------------------- Iteration      1(   2)  ---------------------------------------


    POTLOK:  cpu time      0.0261: real time      0.0262
    SETDIJ:  cpu time      0.1349: real time      0.1351
    EDDIAG:  cpu time      0.0319: real time      0.0320
  RMM-DIIS:  cpu time      0.0827: real time      0.0830
    ORTHCH:  cpu time      0.0042: real time      0.0042
       DOS:  cpu time      0.0002: real time      0.0002
    CHARGE:  cpu time      0.0237: real time      0.0238
    MIXING:  cpu time      0.0012: real time      0.0012
    --------------------------------------------
      LOOP:  cpu time      0.3049: real time      0.3058

 eigenvalue-minimisations  :  1280
 total energy-change (2. order) : 0.1333596E+01  (-0.4844612E+00)
 number of electron      15.9999994 magnetization       4.6375700
 augmentation part        7.9490877 magnetization       3.8380644

 Broyden mixing:
  rms(total) = 0.14703E+01    rms(broyden)= 0.14702E+01
  rms(prec ) = 0.17503E+01
  weight for this iteration     100.00

 eigenvalues of (default mixing * dielectric matrix)
  average eigenvalue GAMMA=   0.4420
  0.4420

 Free energy of the ion-electron system (eV)
  ---------------------------------------------------
  alpha Z        PSCENC =       117.79976207
  Ewald energy   TEWEN  =     -1171.43779554
  -Hartree energ DENC   =      -202.60812404
  -exchange      EXHF   =         0.00000000
  -V(xc)+E(xc)   XCENC  =         9.53915400
  PAW double counting   =      1426.76902231    -1445.89152036
  entropy T*S    EENTRO =        -0.00319296
  eigenvalues    EBANDS =        60.62695343
  atomic energy  EATOM  =      1188.62536141
  Solvation  Ediel_sol  =         0.00000000
  ---------------------------------------------------
  free energy    TOTEN  =       -16.58037967 eV

  energy without entropy =      -16.57718672  energy(sigma->0) =      -16.57878319


--------------------------------------------------------------------------------------------------------




--------------------------------------- Iteration      1(   3)  ---------------------------------------


    POTLOK:  cpu time      0.0256: real time      0.0257
    SETDIJ:  cpu time      0.1348: real time      0.1350
    EDDIAG:  cpu time      0.0318: real time      0.0320
  RMM-DIIS:  cpu time      0.0821: real time      0.0824
    ORTHCH:  cpu time      0.0042: real time      0.0042
       DOS:  cpu time      0.0002: real time      0.0002
    CHARGE:  cpu time      0.0233: real time      0.0234
    MIXING:  cpu time      0.0012: real time      0.0012
    --------------------------------------------
      LOOP:  cpu time      0.3031: real time      0.3041

 eigenvalue-minimisations  :  1280
 total energy-change (2. order) : 0.1103577E+00  (-0.2107218E-01)
 number of electron      15.9999994 magnetization       4.5412907
 augmentation part        8.3021399 magnetization       3.7670659

 Broyden mixing:
  rms(total) = 0.17929E+00    rms(broyden)= 0.17929E+00
  rms(prec ) = 0.19093E+00
  weight for this iteration     100.00

 eigenvalues of (default mixing * dielectric matrix)
  average eigenvalue GAMMA=   0.6679
  0.6679  0.6679

 Free energy of the ion-electron system (eV)
  ---------------------------------------------------
  alpha Z        PSCENC =       117.79976207
  Ewald energy   TEWEN  =     -1171.43779554
  -Hartree energ DENC   =      -196.61460902
  -exchange      EXHF   =         0.00000000
  -V(xc)+E(xc)   XCENC  =         8.76026861
  PAW double counting   =      1416.67661818    -1434.49749195
  entropy T*S    EENTRO =        -0.00321063
  eigenvalues    EBANDS =        54.22107486
  atomic energy  EATOM  =      1188.62536141
  Solvation  Ediel_sol  =         0.00000000
  ---------------------------------------------------
  free energy    TOTEN  =       -16.47002201 eV

  energy without entropy =      -16.46681138  energy(sigma->0) =      -16.46841669


--------------------------------------------------------------------------------------------------------




--------------------------------------- Iteration      1(   4)  ---------------------------------------


    POTLOK:  cpu time      0.0255: real time      0.0257
    SETDIJ:  cpu time      0.1341: real time      0.1344
    EDDIAG:  cpu time      0.0316: real time      0.0318
  RMM-DIIS:  cpu time      0.0820: real time      0.0822
    ORTHCH:  cpu time      0.0041: real time      0.0041
       DOS:  cpu time      0.0003: real time      0.0003
    CHARGE:  cpu time      0.0232: real time      0.0233
    MIXING:  cpu time      0.0012: real time      0.0012
    --------------------------------------------
      LOOP:  cpu time      0.3020: real time      0.3029

 eigenvalue-minimisations  :  1280
 total energy-change (2. order) :-0.1635128E-02  (-0.1650318E-02)
 number of electron      15.9999994 magnetization       4.5237140
 augmentation part        8.3121049 magnetization       3.7645329

 Broyden mixing:
  rms(total) = 0.57400E-01    rms(broyden)= 0.57400E-01
  rms(prec ) = 0.65489E-01
  weight for this iteration     100.00

 eigenvalues of (default mixing * dielectric matrix)
  average eigenvalue GAMMA=   0.7353
  0.8313  0.8313  0.5433

 Free energy of the ion-electron system (eV)
  ---------------------------------------------------
  alpha Z        PSCENC =       117.79976207
  Ewald energy   TEWEN  =     -1171.43779554
  -Hartree energ DENC   =      -196.06878515
  -exchange      EXHF   =         0.00000000
  -V(xc)+E(xc)   XCENC  =         8.67001292
  PAW double counting   =      1414.81526649    -1432.58861480
  entropy T*S    EENTRO =        -0.00400659
  eigenvalues    EBANDS =        53.71714207
  atomic energy  EATOM  =      1188.62536141
  Solvation  Ediel_sol  =         0.00000000
  ---------------------------------------------------
  free energy    TOTEN  =       -16.47165713 eV

  energy without entropy =      -16.46765054  energy(sigma->0) =      -16.46965384


--------------------------------------------------------------------------------------------------------




--------------------------------------- Iteration      1(   5)  ---------------------------------------


    POTLOK:  cpu time      0.0255: real time      0.0257
    SETDIJ:  cpu time      0.1342: real time      0.1345
    EDDIAG:  cpu time      0.0317: real time      0.0318
  RMM-DIIS:  cpu time      0.0814: real time      0.0817
    ORTHCH:  cpu time      0.0041: real time      0.0041
       DOS:  cpu time      0.0003: real time      0.0003
    CHARGE:  cpu time      0.0234: real time      0.0235
    MIXING:  cpu time      0.0012: real time      0.0012
    --------------------------------------------
      LOOP:  cpu time      0.3018: real time      0.3027

 eigenvalue-minimisations  :  1267
 total energy-change (2. order) :-0.2743716E-03  (-0.1271589E-03)
 number of electron      15.9999994 magnetization       4.4511312
 augmentation part        8.3077604 magnetization       3.6959198

 Broyden mixing:
  rms(total) = 0.50460E-01    rms(broyden)= 0.50460E-01
  rms(prec ) = 0.61745E-01
  weight for this iteration     100.00

 eigenvalues of (default mixing * dielectric matrix)
  average eigenvalue GAMMA=   1.1168
  1.9470  1.2056  0.6037  0.7110

 Free energy of the ion-electron system (eV)
  ---------------------------------------------------
  alpha Z        PSCENC =       117.79976207
  Ewald energy   TEWEN  =     -1171.43779554
  -Hartree energ DENC   =      -195.98474663
  -exchange      EXHF   =         0.00000000
  -V(xc)+E(xc)   XCENC  =         8.65462679
  PAW double counting   =      1414.54814013    -1432.33944891
  entropy T*S    EENTRO =        -0.00417342
  eigenvalues    EBANDS =        53.66634260
  atomic energy  EATOM  =      1188.62536141
  Solvation  Ediel_sol  =         0.00000000
  ---------------------------------------------------
  free energy    TOTEN  =       -16.47193151 eV

  energy without entropy =      -16.46775809  energy(sigma->0) =      -16.46984480


--------------------------------------------------------------------------------------------------------




--------------------------------------- Iteration      1(   6)  ---------------------------------------


    POTLOK:  cpu time      0.0255: real time      0.0256
    SETDIJ:  cpu time      0.1341: real time      0.1344
    EDDIAG:  cpu time      0.0315: real time      0.0317
  RMM-DIIS:  cpu time      0.0885: real time      0.0888
    ORTHCH:  cpu time      0.0043: real time      0.0044
       DOS:  cpu time      0.0003: real time      0.0003
    CHARGE:  cpu time      0.0253: real time      0.0253
    MIXING:  cpu time      0.0015: real time      0.0015
    --------------------------------------------
      LOOP:  cpu time      0.3111: real time      0.3120

 eigenvalue-minimisations  :  1336
 total energy-change (2. order) :-0.9483545E-03  (-0.4778652E-03)
 number of electron      15.9999994 magnetization       4.4488792
 augmentation part        8.3358602 magnetization       3.7070720

 Broyden mixing:
  rms(total) = 0.30404E-01    rms(broyden)= 0.30402E-01
  rms(prec ) = 0.55320E-01
  weight for this iteration     100.00

 eigenvalues of (default mixing * dielectric matrix)
  average eigenvalue GAMMA=   1.0440
  2.4920  1.0703  0.7468  0.5881  0.3227

 Free energy of the ion-electron system (eV)
  ---------------------------------------------------
  alpha Z        PSCENC =       117.79976207
  Ewald energy   TEWEN  =     -1171.43779554
  -Hartree energ DENC   =      -195.24112320
  -exchange      EXHF   =         0.00000000
  -V(xc)+E(xc)   XCENC  =         8.55706484
  PAW double counting   =      1414.15520292    -1431.89010481
  entropy T*S    EENTRO =        -0.00447068
  eigenvalues    EBANDS =        52.96322313
  atomic energy  EATOM  =      1188.62536141
  Solvation  Ediel_sol  =         0.00000000
  ---------------------------------------------------
  free energy    TOTEN  =       -16.47287986 eV

  energy without entropy =      -16.46840918  energy(sigma->0) =      -16.47064452


--------------------------------------------------------------------------------------------------------




--------------------------------------- Iteration      1(   7)  ---------------------------------------


    POTLOK:  cpu time      0.0268: real time      0.0269
    SETDIJ:  cpu time      0.1351: real time      0.1353
    EDDIAG:  cpu time      0.0321: real time      0.0323
  RMM-DIIS:  cpu time      0.0792: real time      0.0794
    ORTHCH:  cpu time      0.0041: real time      0.0041
       DOS:  cpu time      0.0003: real time      0.0003
    CHARGE:  cpu time      0.0235: real time      0.0235
    MIXING:  cpu time      0.0012: real time      0.0012
    --------------------------------------------
      LOOP:  cpu time      0.3022: real time      0.3030

 eigenvalue-minimisations  :  1211
 total energy-change (2. order) :-0.5180557E-04  (-0.1220836E-04)
 number of electron      15.9999994 magnetization       4.4575132
 augmentation part        8.3334632 magnetization       3.7175769

 Broyden mixing:
  rms(total) = 0.28136E-01    rms(broyden)= 0.28136E-01
  rms(prec ) = 0.50347E-01
  weight for this iteration     100.00

 eigenvalues of (default mixing * dielectric matrix)
  average eigenvalue GAMMA=   0.8779
  2.4596  1.0749  0.7563  0.5853  0.3520  0.0390

 Free energy of the ion-electron system (eV)
  ---------------------------------------------------
  alpha Z        PSCENC =       117.79976207
  Ewald energy   TEWEN  =     -1171.43779554
  -Hartree energ DENC   =      -195.24661657
  -exchange      EXHF   =         0.00000000
  -V(xc)+E(xc)   XCENC  =         8.55514850
  PAW double counting   =      1414.13505818    -1431.87325974
  entropy T*S    EENTRO =        -0.00447351
  eigenvalues    EBANDS =        52.97388353
  atomic energy  EATOM  =      1188.62536141
  Solvation  Ediel_sol  =         0.00000000
  ---------------------------------------------------
  free energy    TOTEN  =       -16.47293167 eV

  energy without entropy =      -16.46845816  energy(sigma->0) =      -16.47069491


--------------------------------------------------------------------------------------------------------




--------------------------------------- Iteration      1(   8)  ---------------------------------------


    POTLOK:  cpu time      0.0255: real time      0.0256
    SETDIJ:  cpu time      0.1342: real time      0.1345
    EDDIAG:  cpu time      0.0318: real time      0.0320
  RMM-DIIS:  cpu time      0.0753: real time      0.0755
    ORTHCH:  cpu time      0.0041: real time      0.0041
       DOS:  cpu time      0.0003: real time      0.0003
    CHARGE:  cpu time      0.0234: real time      0.0235
    MIXING:  cpu time      0.0012: real time      0.0012
    --------------------------------------------
      LOOP:  cpu time      0.2958: real time      0.2967

 eigenvalue-minimisations  :  1122
 total energy-change (2. order) : 0.2276970E-03  (-0.4880018E-05)
 number of electron      15.9999994 magnetization       4.4857539
 augmentation part        8.3305906 magnetization       3.7442038

 Broyden mixing:
  rms(total) = 0.24006E-01    rms(broyden)= 0.24006E-01
  rms(prec ) = 0.41407E-01
  weight for this iteration     100.00

 eigenvalues of (default mixing * dielectric matrix)
  average eigenvalue GAMMA=   1.0241
  2.6341  0.5357  1.1152  1.1152  0.6037  0.6037  0.5607

 Free energy of the ion-electron system (eV)
  ---------------------------------------------------
  alpha Z        PSCENC =       117.79976207
  Ewald energy   TEWEN  =     -1171.43779554
  -Hartree energ DENC   =      -195.31523817
  -exchange      EXHF   =         0.00000000
  -V(xc)+E(xc)   XCENC  =         8.56620499
  PAW double counting   =      1414.33224336    -1432.08917723
  entropy T*S    EENTRO =        -0.00447246
  eigenvalues    EBANDS =        53.05040762
  atomic energy  EATOM  =      1188.62536141
  Solvation  Ediel_sol  =         0.00000000
  ---------------------------------------------------
  free energy    TOTEN  =       -16.47270397 eV

  energy without entropy =      -16.46823151  energy(sigma->0) =      -16.47046774


--------------------------------------------------------------------------------------------------------




--------------------------------------- Iteration      1(   9)  ---------------------------------------


    POTLOK:  cpu time      0.0253: real time      0.0255
    SETDIJ:  cpu time      0.1340: real time      0.1342
    EDDIAG:  cpu time      0.0318: real time      0.0319
  RMM-DIIS:  cpu time      0.0957: real time      0.0960
    ORTHCH:  cpu time      0.0047: real time      0.0047
       DOS:  cpu time      0.0003: real time      0.0003
    CHARGE:  cpu time      0.0232: real time      0.0233
    MIXING:  cpu time      0.0013: real time      0.0013
    --------------------------------------------
      LOOP:  cpu time      0.3163: real time      0.3172

 eigenvalue-minimisations  :  1467
 total energy-change (2. order) : 0.5562193E-03  (-0.7445987E-04)
 number of electron      15.9999994 magnetization       4.4965102
 augmentation part        8.3199846 magnetization       3.7493507

 Broyden mixing:
  rms(total) = 0.10941E-01    rms(broyden)= 0.10940E-01
  rms(prec ) = 0.11661E-01
  weight for this iteration     100.00

 eigenvalues of (default mixing * dielectric matrix)
  average eigenvalue GAMMA=   1.0552
  2.8257  0.5794  1.1649  1.1649  0.8588  0.6810  0.5835  0.5835

 Free energy of the ion-electron system (eV)
  ---------------------------------------------------
  alpha Z        PSCENC =       117.79976207
  Ewald energy   TEWEN  =     -1171.43779554
  -Hartree energ DENC   =      -195.56379723
  -exchange      EXHF   =         0.00000000
  -V(xc)+E(xc)   XCENC  =         8.60609851
  PAW double counting   =      1415.05955236    -1432.90569693
  entropy T*S    EENTRO =        -0.00440239
  eigenvalues    EBANDS =        53.34876999
  atomic energy  EATOM  =      1188.62536141
  Solvation  Ediel_sol  =         0.00000000
  ---------------------------------------------------
  free energy    TOTEN  =       -16.47214775 eV

  energy without entropy =      -16.46774536  energy(sigma->0) =      -16.46994655


--------------------------------------------------------------------------------------------------------




--------------------------------------- Iteration      1(  10)  ---------------------------------------


    POTLOK:  cpu time      0.0253: real time      0.0255
    SETDIJ:  cpu time      0.1350: real time      0.1353
    EDDIAG:  cpu time      0.0317: real time      0.0319
  RMM-DIIS:  cpu time      0.0809: real time      0.0811
    ORTHCH:  cpu time      0.0041: real time      0.0041
       DOS:  cpu time      0.0003: real time      0.0003
    CHARGE:  cpu time      0.0233: real time      0.0234
    MIXING:  cpu time      0.0013: real time      0.0014
    --------------------------------------------
      LOOP:  cpu time      0.3020: real time      0.3029

 eigenvalue-minimisations  :  1245
 total energy-change (2. order) : 0.6157374E-04  (-0.8454592E-05)
 number of electron      15.9999994 magnetization       4.5083088
 augmentation part        8.3168838 magnetization       3.7585438

 Broyden mixing:
  rms(total) = 0.11055E-01    rms(broyden)= 0.11055E-01
  rms(prec ) = 0.12076E-01
  weight for this iteration     100.00

 eigenvalues of (default mixing * dielectric matrix)
  average eigenvalue GAMMA=   1.0342
  2.8300  0.5907  1.2440  1.2440  0.8122  0.8122  0.6218  0.6218  0.5315

 Free energy of the ion-electron system (eV)
  ---------------------------------------------------
  alpha Z        PSCENC =       117.79976207
  Ewald energy   TEWEN  =     -1171.43779554
  -Hartree energ DENC   =      -195.63698709
  -exchange      EXHF   =         0.00000000
  -V(xc)+E(xc)   XCENC  =         8.62106715
  PAW double counting   =      1415.25232096    -1433.13581407
  entropy T*S    EENTRO =        -0.00432931
  eigenvalues    EBANDS =        53.44432824
  atomic energy  EATOM  =      1188.62536141
  Solvation  Ediel_sol  =         0.00000000
  ---------------------------------------------------
  free energy    TOTEN  =       -16.47208618 eV

  energy without entropy =      -16.46775686  energy(sigma->0) =      -16.46992152


--------------------------------------------------------------------------------------------------------




--------------------------------------- Iteration      1(  11)  ---------------------------------------


    POTLOK:  cpu time      0.0253: real time      0.0255
    SETDIJ:  cpu time      0.1341: real time      0.1343
    EDDIAG:  cpu time      0.0317: real time      0.0318
  RMM-DIIS:  cpu time      0.0700: real time      0.0702
    ORTHCH:  cpu time      0.0041: real time      0.0041
       DOS:  cpu time      0.0003: real time      0.0002
    CHARGE:  cpu time      0.0234: real time      0.0234
    MIXING:  cpu time      0.0014: real time      0.0014
    --------------------------------------------
      LOOP:  cpu time      0.2901: real time      0.2910

 eigenvalue-minimisations  :  1001
 total energy-change (2. order) : 0.5549400E-04  (-0.3566611E-05)
 number of electron      15.9999994 magnetization       4.5220956
 augmentation part        8.3159524 magnetization       3.7694727

 Broyden mixing:
  rms(total) = 0.11703E-01    rms(broyden)= 0.11702E-01
  rms(prec ) = 0.14256E-01
  weight for this iteration     100.00

 eigenvalues of (default mixing * dielectric matrix)
  average eigenvalue GAMMA=   1.1239
  2.3823  2.3823  0.5980  1.5488  0.9681  0.9681  0.5580  0.5580  0.6379  0.6379

 Free energy of the ion-electron system (eV)
  ---------------------------------------------------
  alpha Z        PSCENC =       117.79976207
  Ewald energy   TEWEN  =     -1171.43779554
  -Hartree energ DENC   =      -195.67561656
  -exchange      EXHF   =         0.00000000
  -V(xc)+E(xc)   XCENC  =         8.63419579
  PAW double counting   =      1415.38786171    -1433.28789650
  entropy T*S    EENTRO =        -0.00421752
  eigenvalues    EBANDS =        53.48631446
  atomic energy  EATOM  =      1188.62536141
  Solvation  Ediel_sol  =         0.00000000
  ---------------------------------------------------
  free energy    TOTEN  =       -16.47203068 eV

  energy without entropy =      -16.46781317  energy(sigma->0) =      -16.46992192


--------------------------------------------------------------------------------------------------------




--------------------------------------- Iteration      1(  12)  ---------------------------------------


    POTLOK:  cpu time      0.0253: real time      0.0254
    SETDIJ:  cpu time      0.1341: real time      0.1343
    EDDIAG:  cpu time      0.0316: real time      0.0317
  RMM-DIIS:  cpu time      0.0660: real time      0.0662
    ORTHCH:  cpu time      0.0041: real time      0.0041
       DOS:  cpu time      0.0003: real time      0.0003
    CHARGE:  cpu time      0.0234: real time      0.0234
    MIXING:  cpu time      0.0014: real time      0.0014
    --------------------------------------------
      LOOP:  cpu time      0.2861: real time      0.2869

 eigenvalue-minimisations  :   948
 total energy-change (2. order) : 0.6255119E-04  (-0.2411898E-05)
 number of electron      15.9999994 magnetization       4.5311569
 augmentation part        8.3157239 magnetization       3.7755903

 Broyden mixing:
  rms(total) = 0.12485E-01    rms(broyden)= 0.12484E-01
  rms(prec ) = 0.15834E-01
  weight for this iteration     100.00

 eigenvalues of (default mixing * dielectric matrix)
  average eigenvalue GAMMA=   1.1979
  2.8820  2.1989  2.1989  0.5998  0.9816  0.9816  0.7742  0.7742  0.6027  0.6027
  0.5804

 Free energy of the ion-electron system (eV)
  ---------------------------------------------------
  alpha Z        PSCENC =       117.79976207
  Ewald energy   TEWEN  =     -1171.43779554
  -Hartree energ DENC   =      -195.70263515
  -exchange      EXHF   =         0.00000000
  -V(xc)+E(xc)   XCENC  =         8.64915827
  PAW double counting   =      1415.62513375    -1433.53933546
  entropy T*S    EENTRO =        -0.00405366
  eigenvalues    EBANDS =        53.51243619
  atomic energy  EATOM  =      1188.62536141
  Solvation  Ediel_sol  =         0.00000000
  ---------------------------------------------------
  free energy    TOTEN  =       -16.47196813 eV

  energy without entropy =      -16.46791447  energy(sigma->0) =      -16.46994130


--------------------------------------------------------------------------------------------------------




--------------------------------------- Iteration      1(  13)  ---------------------------------------


    POTLOK:  cpu time      0.0253: real time      0.0255
    SETDIJ:  cpu time      0.1342: real time      0.1344
    EDDIAG:  cpu time      0.0316: real time      0.0318
  RMM-DIIS:  cpu time      0.0570: real time      0.0572
    ORTHCH:  cpu time      0.0041: real time      0.0041
       DOS:  cpu time      0.0002: real time      0.0002
    CHARGE:  cpu time      0.0232: real time      0.0232
    MIXING:  cpu time      0.0015: real time      0.0015
    --------------------------------------------
      LOOP:  cpu time      0.2770: real time      0.2778

 eigenvalue-minimisations  :   753
 total energy-change (2. order) : 0.4500358E-04  (-0.9696940E-06)
 number of electron      15.9999994 magnetization       4.5157085
 augmentation part        8.3160003 magnetization       3.7581874

 Broyden mixing:
  rms(total) = 0.12308E-01    rms(broyden)= 0.12308E-01
  rms(prec ) = 0.15709E-01
  weight for this iteration     100.00

 eigenvalues of (default mixing * dielectric matrix)
  average eigenvalue GAMMA=   1.3153
  3.6933  2.8876  0.6006  1.7418  1.6243  0.9389  0.9389  0.8844  0.6754  0.5918
  0.5918  0.6153

 Free energy of the ion-electron system (eV)
  ---------------------------------------------------
  alpha Z        PSCENC =       117.79976207
  Ewald energy   TEWEN  =     -1171.43779554
  -Hartree energ DENC   =      -195.71377933
  -exchange      EXHF   =         0.00000000
  -V(xc)+E(xc)   XCENC  =         8.65904225
  PAW double counting   =      1415.88304427    -1433.80509779
  entropy T*S    EENTRO =        -0.00390701
  eigenvalues    EBANDS =        53.52144655
  atomic energy  EATOM  =      1188.62536141
  Solvation  Ediel_sol  =         0.00000000
  ---------------------------------------------------
  free energy    TOTEN  =       -16.47192313 eV

  energy without entropy =      -16.46801612  energy(sigma->0) =      -16.46996962


--------------------------------------------------------------------------------------------------------




--------------------------------------- Iteration      1(  14)  ---------------------------------------


    POTLOK:  cpu time      0.0254: real time      0.0255
    SETDIJ:  cpu time      0.1341: real time      0.1344
    EDDIAG:  cpu time      0.0316: real time      0.0317
  RMM-DIIS:  cpu time      0.0605: real time      0.0607
    ORTHCH:  cpu time      0.0041: real time      0.0041
       DOS:  cpu time      0.0002: real time      0.0002
    CHARGE:  cpu time      0.0233: real time      0.0233
    MIXING:  cpu time      0.0013: real time      0.0014
    --------------------------------------------
      LOOP:  cpu time      0.2805: real time      0.2813

 eigenvalue-minimisations  :   793
 total energy-change (2. order) :-0.8681273E-04  (-0.9349310E-06)
 number of electron      15.9999994 magnetization       4.5055661
 augmentation part        8.3155848 magnetization       3.7503636

 Broyden mixing:
  rms(total) = 0.10726E-01    rms(broyden)= 0.10726E-01
  rms(prec ) = 0.14671E-01
  weight for this iteration     100.00

 eigenvalues of (default mixing * dielectric matrix)
  average eigenvalue GAMMA=   1.1270
  2.8261  2.0163  1.4735  1.1129  0.5999  1.4083  0.9533  0.9533  0.8122  0.6995
  0.5912  0.5912  0.6127

 Free energy of the ion-electron system (eV)
  ---------------------------------------------------
  alpha Z        PSCENC =       117.79976207
  Ewald energy   TEWEN  =     -1171.43779554
  -Hartree energ DENC   =      -195.70291045
  -exchange      EXHF   =         0.00000000
  -V(xc)+E(xc)   XCENC  =         8.64237748
  PAW double counting   =      1415.35375904    -1433.26722017
  entropy T*S    EENTRO =        -0.00409583
  eigenvalues    EBANDS =        53.51875206
  atomic energy  EATOM  =      1188.62536141
  Solvation  Ediel_sol  =         0.00000000
  ---------------------------------------------------
  free energy    TOTEN  =       -16.47200994 eV

  energy without entropy =      -16.46791411  energy(sigma->0) =      -16.46996202


--------------------------------------------------------------------------------------------------------




--------------------------------------- Iteration      1(  15)  ---------------------------------------


    POTLOK:  cpu time      0.0254: real time      0.0256
    SETDIJ:  cpu time      0.1342: real time      0.1345
    EDDIAG:  cpu time      0.0315: real time      0.0317
  RMM-DIIS:  cpu time      0.0572: real time      0.0574
    ORTHCH:  cpu time      0.0041: real time      0.0041
       DOS:  cpu time      0.0003: real time      0.0003
    CHARGE:  cpu time      0.0234: real time      0.0234
    MIXING:  cpu time      0.0014: real time      0.0014
    --------------------------------------------
      LOOP:  cpu time      0.2775: real time      0.2784

 eigenvalue-minimisations  :   759
 total energy-change (2. order) :-0.4694635E-04  (-0.1087601E-05)
 number of electron      15.9999994 magnetization       4.4337927
 augmentation part        8.3158190 magnetization       3.6808784

 Broyden mixing:
  rms(total) = 0.10318E-01    rms(broyden)= 0.10318E-01
  rms(prec ) = 0.13445E-01
  weight for this iteration     100.00

 eigenvalues of (default mixing * dielectric matrix)
  average eigenvalue GAMMA=   1.9318
 13.5041  2.8054  1.7403  1.7403  0.6005  1.0298  1.0298  0.7952  0.7952  0.5774
  0.5774  0.5905  0.6298  0.6298

 Free energy of the ion-electron system (eV)
  ---------------------------------------------------
  alpha Z        PSCENC =       117.79976207
  Ewald energy   TEWEN  =     -1171.43779554
  -Hartree energ DENC   =      -195.67968111
  -exchange      EXHF   =         0.00000000
  -V(xc)+E(xc)   XCENC  =         8.63094437
  PAW double counting   =      1415.03382993    -1432.93866647
  entropy T*S    EENTRO =        -0.00421951
  eigenvalues    EBANDS =        53.49840797
  atomic energy  EATOM  =      1188.62536141
  Solvation  Ediel_sol  =         0.00000000
  ---------------------------------------------------
  free energy    TOTEN  =       -16.47205689 eV

  energy without entropy =      -16.46783737  energy(sigma->0) =      -16.46994713


--------------------------------------------------------------------------------------------------------




--------------------------------------- Iteration      1(  16)  ---------------------------------------


    POTLOK:  cpu time      0.0254: real time      0.0256
    SETDIJ:  cpu time      0.1341: real time      0.1343
    EDDIAG:  cpu time      0.0315: real time      0.0317
  RMM-DIIS:  cpu time      0.0958: real time      0.0961
    ORTHCH:  cpu time      0.0049: real time      0.0049
       DOS:  cpu time      0.0003: real time      0.0003
    CHARGE:  cpu time      0.0254: real time      0.0255
    MIXING:  cpu time      0.0019: real time      0.0019
    --------------------------------------------
      LOOP:  cpu time      0.3193: real time      0.3203

 eigenvalue-minimisations  :  1390
 total energy-change (2. order) :-0.3201199E-03  (-0.3123488E-04)
 number of electron      15.9999994 magnetization       4.3766464
 augmentation part        8.3151935 magnetization       3.6385563

 Broyden mixing:
  rms(total) = 0.80320E-02    rms(broyden)= 0.80196E-02
  rms(prec ) = 0.94834E-02
  weight for this iteration     100.00

 eigenvalues of (default mixing * dielectric matrix)
  average eigenvalue GAMMA=   2.2674
 20.3775  2.6939  1.8118  0.6005  1.2717  1.2717  0.7972  0.7972  0.8814  0.7150
  0.7150  0.6050  0.5749  0.5749  0.3236

 Free energy of the ion-electron system (eV)
  ---------------------------------------------------
  alpha Z        PSCENC =       117.79976207
  Ewald energy   TEWEN  =     -1171.43779554
  -Hartree energ DENC   =      -195.57184413
  -exchange      EXHF   =         0.00000000
  -V(xc)+E(xc)   XCENC  =         8.55336076
  PAW double counting   =      1412.74071272    -1430.59326770
  entropy T*S    EENTRO =        -0.00440316
  eigenvalues    EBANDS =        53.41573656
  atomic energy  EATOM  =      1188.62536141
  Solvation  Ediel_sol  =         0.00000000
  ---------------------------------------------------
  free energy    TOTEN  =       -16.47237701 eV

  energy without entropy =      -16.46797385  energy(sigma->0) =      -16.47017543


--------------------------------------------------------------------------------------------------------




--------------------------------------- Iteration      1(  17)  ---------------------------------------


    POTLOK:  cpu time      0.0267: real time      0.0269
    SETDIJ:  cpu time      0.1354: real time      0.1356
    EDDIAG:  cpu time      0.0321: real time      0.0323
  RMM-DIIS:  cpu time      0.0893: real time      0.0895
    ORTHCH:  cpu time      0.0041: real time      0.0041
       DOS:  cpu time      0.0002: real time      0.0003
    CHARGE:  cpu time      0.0235: real time      0.0236
    MIXING:  cpu time      0.0014: real time      0.0014
    --------------------------------------------
      LOOP:  cpu time      0.3128: real time      0.3137

 eigenvalue-minimisations  :  1339
 total energy-change (2. order) :-0.4028991E-03  (-0.2084313E-04)
 number of electron      15.9999994 magnetization       4.3547846
 augmentation part        8.3145518 magnetization       3.6277238

 Broyden mixing:
  rms(total) = 0.56913E-02    rms(broyden)= 0.56726E-02
  rms(prec ) = 0.63634E-02
  weight for this iteration     100.00

 eigenvalues of (default mixing * dielectric matrix)
  average eigenvalue GAMMA=   1.8534
 15.3846  2.6608  1.8057  1.2765  1.2765  0.8128  0.8128  0.8742  0.7057  0.7057
  0.5740  0.5740  0.6109  0.6001  0.6063  0.3733

 Free energy of the ion-electron system (eV)
  ---------------------------------------------------
  alpha Z        PSCENC =       117.79976207
  Ewald energy   TEWEN  =     -1171.43779554
  -Hartree energ DENC   =      -195.49516993
  -exchange      EXHF   =         0.00000000
  -V(xc)+E(xc)   XCENC  =         8.49258228
  PAW double counting   =      1410.88808902    -1428.69701028
  entropy T*S    EENTRO =        -0.00379408
  eigenvalues    EBANDS =        53.35519515
  atomic energy  EATOM  =      1188.62536141
  Solvation  Ediel_sol  =         0.00000000
  ---------------------------------------------------
  free energy    TOTEN  =       -16.47277990 eV

  energy without entropy =      -16.46898582  energy(sigma->0) =      -16.47088286


--------------------------------------------------------------------------------------------------------




--------------------------------------- Iteration      1(  18)  ---------------------------------------


    POTLOK:  cpu time      0.0253: real time      0.0255
    SETDIJ:  cpu time      0.1344: real time      0.1346
    EDDIAG:  cpu time      0.0319: real time      0.0321
  RMM-DIIS:  cpu time      0.0750: real time      0.0752
    ORTHCH:  cpu time      0.0042: real time      0.0042
       DOS:  cpu time      0.0003: real time      0.0003
    CHARGE:  cpu time      0.0234: real time      0.0235
    MIXING:  cpu time      0.0015: real time      0.0015
    --------------------------------------------
      LOOP:  cpu time      0.2959: real time      0.2968

 eigenvalue-minimisations  :  1073
 total energy-change (2. order) :-0.1587222E-03  (-0.4269179E-05)
 number of electron      15.9999994 magnetization       4.3380104
 augmentation part        8.3143808 magnetization       3.6142713

 Broyden mixing:
  rms(total) = 0.34936E-02    rms(broyden)= 0.34854E-02
  rms(prec ) = 0.40373E-02
  weight for this iteration     100.00

 eigenvalues of (default mixing * dielectric matrix)
  average eigenvalue GAMMA=   1.9597
 18.4828  2.6360  1.8696  0.6005  1.2640  1.2640  0.9270  0.9270  0.9175  0.6794
  0.6794  0.6313  0.5745  0.5745  0.4417  0.4229  0.4229

 Free energy of the ion-electron system (eV)
  ---------------------------------------------------
  alpha Z        PSCENC =       117.79976207
  Ewald energy   TEWEN  =     -1171.43779554
  -Hartree energ DENC   =      -195.46841062
  -exchange      EXHF   =         0.00000000
  -V(xc)+E(xc)   XCENC  =         8.46964185
  PAW double counting   =      1410.16690046    -1427.95873887
  entropy T*S    EENTRO =        -0.00350680
  eigenvalues    EBANDS =        53.33384742
  atomic energy  EATOM  =      1188.62536141
  Solvation  Ediel_sol  =         0.00000000
  ---------------------------------------------------
  free energy    TOTEN  =       -16.47293863 eV

  energy without entropy =      -16.46943183  energy(sigma->0) =      -16.47118523


--------------------------------------------------------------------------------------------------------




--------------------------------------- Iteration      1(  19)  ---------------------------------------


    POTLOK:  cpu time      0.0254: real time      0.0255
    SETDIJ:  cpu time      0.1341: real time      0.1343
    EDDIAG:  cpu time      0.0319: real time      0.0320
  RMM-DIIS:  cpu time      0.0659: real time      0.0661
    ORTHCH:  cpu time      0.0041: real time      0.0041
       DOS:  cpu time      0.0003: real time      0.0003
    CHARGE:  cpu time      0.0232: real time      0.0233
    MIXING:  cpu time      0.0016: real time      0.0016
    --------------------------------------------
      LOOP:  cpu time      0.2863: real time      0.2871

 eigenvalue-minimisations  :   927
 total energy-change (2. order) :-0.3713243E-04  (-0.2264823E-05)
 number of electron      15.9999994 magnetization       4.3154031
 augmentation part        8.3144135 magnetization       3.5932164

 Broyden mixing:
  rms(total) = 0.13431E-02    rms(broyden)= 0.13371E-02
  rms(prec ) = 0.17398E-02
  weight for this iteration     100.00

 eigenvalues of (default mixing * dielectric matrix)
  average eigenvalue GAMMA=   1.8532
 18.5074  2.6363  1.8712  0.6005  1.2636  1.2636  0.9274  0.9274  0.9178  0.6797
  0.6797  0.6310  0.5746  0.5746  0.4411  0.4261  0.4261  0.0101

 Free energy of the ion-electron system (eV)
  ---------------------------------------------------
  alpha Z        PSCENC =       117.79976207
  Ewald energy   TEWEN  =     -1171.43779554
  -Hartree energ DENC   =      -195.44922941
  -exchange      EXHF   =         0.00000000
  -V(xc)+E(xc)   XCENC  =         8.45237253
  PAW double counting   =      1409.61177831    -1427.39394682
  entropy T*S    EENTRO =        -0.00338751
  eigenvalues    EBANDS =        53.32210921
  atomic energy  EATOM  =      1188.62536141
  Solvation  Ediel_sol  =         0.00000000
  ---------------------------------------------------
  free energy    TOTEN  =       -16.47297576 eV

  energy without entropy =      -16.46958825  energy(sigma->0) =      -16.47128200


--------------------------------------------------------------------------------------------------------




--------------------------------------- Iteration      1(  20)  ---------------------------------------


    POTLOK:  cpu time      0.0252: real time      0.0254
    SETDIJ:  cpu time      0.1342: real time      0.1345
    EDDIAG:  cpu time      0.0317: real time      0.0318
  RMM-DIIS:  cpu time      0.0687: real time      0.0689
    ORTHCH:  cpu time      0.0041: real time      0.0041
       DOS:  cpu time      0.0002: real time      0.0002
    CHARGE:  cpu time      0.0233: real time      0.0234
    MIXING:  cpu time      0.0015: real time      0.0015
    --------------------------------------------
      LOOP:  cpu time      0.2890: real time      0.2899

 eigenvalue-minimisations  :   986
 total energy-change (2. order) : 0.2430343E-04  (-0.3325819E-05)
 number of electron      15.9999994 magnetization       4.3167587
 augmentation part        8.3147055 magnetization       3.5961501

 Broyden mixing:
  rms(total) = 0.66093E-02    rms(broyden)= 0.66083E-02
  rms(prec ) = 0.66608E-02
  weight for this iteration     100.00

 eigenvalues of (default mixing * dielectric matrix)
  average eigenvalue GAMMA=   1.9887
 20.9015  2.6486  1.7946  0.6005  1.2958  1.2958  0.7394  0.7394  0.8294  0.8294
  0.9671  0.7251  0.7251  0.7107  0.7107  0.6196  0.5758  0.5758  0.5015

 Free energy of the ion-electron system (eV)
  ---------------------------------------------------
  alpha Z        PSCENC =       117.79976207
  Ewald energy   TEWEN  =     -1171.43779554
  -Hartree energ DENC   =      -195.41837379
  -exchange      EXHF   =         0.00000000
  -V(xc)+E(xc)   XCENC  =         8.42848611
  PAW double counting   =      1408.79122857    -1426.56350989
  entropy T*S    EENTRO =        -0.00335037
  eigenvalues    EBANDS =        53.30523998
  atomic energy  EATOM  =      1188.62536141
  Solvation  Ediel_sol  =         0.00000000
  ---------------------------------------------------
  free energy    TOTEN  =       -16.47295146 eV

  energy without entropy =      -16.46960109  energy(sigma->0) =      -16.47127627


--------------------------------------------------------------------------------------------------------




--------------------------------------- Iteration      1(  21)  ---------------------------------------


    POTLOK:  cpu time      0.0253: real time      0.0255
    SETDIJ:  cpu time      0.1342: real time      0.1345
    EDDIAG:  cpu time      0.0316: real time      0.0318
  RMM-DIIS:  cpu time      0.0514: real time      0.0516
    ORTHCH:  cpu time      0.0040: real time      0.0041
       DOS:  cpu time      0.0003: real time      0.0003
    --------------------------------------------
      LOOP:  cpu time      0.2471: real time      0.2479

 eigenvalue-minimisations  :   671
 total energy-change (2. order) :-0.8622414E-05  (-0.2725574E-06)
 number of electron      15.9999994 magnetization       4.3167587
 augmentation part        8.3147055 magnetization       3.5961501

 Free energy of the ion-electron system (eV)
  ---------------------------------------------------
  alpha Z        PSCENC =       117.79976207
  Ewald energy   TEWEN  =     -1171.43779554
  -Hartree energ DENC   =      -195.41085238
  -exchange      EXHF   =         0.00000000
  -V(xc)+E(xc)   XCENC  =         8.42950035
  PAW double counting   =      1408.84567559    -1426.61699628
  entropy T*S    EENTRO =        -0.00335085
  eigenvalues    EBANDS =        53.29573555
  atomic energy  EATOM  =      1188.62536141
  Solvation  Ediel_sol  =         0.00000000
  ---------------------------------------------------
  free energy    TOTEN  =       -16.47296008 eV

  energy without entropy =      -16.46960923  energy(sigma->0) =      -16.47128465


--------------------------------------------------------------------------------------------------------




 average (electrostatic) potential at core
  the test charge radii are     1.0103
  (the norm of the test charge is              1.0000)
       1 -43.6039       2 -43.6039
 
 
 
 E-fermi :   5.5429     XC(G=0): -12.9325     alpha+bet :-13.2097

 WARNING: Could not determine fundamental gap because eigenvalues are not
     sorted.

 Fermi energy:         5.5429130548

 spin component 1

 k-point     1 :       0.0000    0.0000    0.0000
  band No.  band energies     occupation 
      1      -2.7202      1.00000
      2       0.8651      1.00000
      3       0.8651      1.00000
      4       3.2837      1.00000
      5       3.2837      1.00000
      6       3.2837      1.00000
      7       4.4349      1.00000
      8       4.4349      1.00000
      9       5.5878      0.10228
     10       5.5878      0.10228
     11       5.5878      0.10228
     12      15.2337      0.00000
     13      15.2337      0.00000
     14      15.2337      0.00000
     15      20.8442      0.00000
     16      20.8442      0.00000

 k-point     2 :       0.1667    0.0000    0.0000
  band No.  band energies     occupation 
      1      -2.1667      1.00000
      2       1.0880      1.00000
      3       1.0971      1.00000
      4       3.2865      1.00000
      5       3.2865      1.00000
      6       3.4322      1.00000
      7       4.1960      1.00000
      8       4.5283      1.00000
      9       5.1730      1.00000
     10       5.1730      1.00000
     11       5.4279      0.99943
     12      12.2906      0.00000
     13      16.2403      0.00000
     14      16.2403      0.00000
     15      21.0188      0.00000
     16      22.5320      0.00000

 k-point     3 :       0.3333    0.0000    0.0000
  band No.  band energies     occupation 
      1      -0.6683      1.00000
      2       1.4557      1.00000
      3       1.7396      1.00000
      4       3.3759      1.00000
      5       3.3759      1.00000
      6       3.5371      1.00000
      7       3.8423      1.00000
      8       4.3662      1.00000
      9       4.3662      1.00000
     10       4.8082      1.00000
     11       4.9949      1.00000
     12       8.3069      0.00000
     13      18.7859      0.00000
     14      18.7859      0.00000
     15      21.6020      0.00000
     16      23.5571      0.00000

 k-point     4 :       0.5000    0.0000    0.0000
  band No.  band energies     occupation 
      1       1.0038      1.00000
      2       1.0038      1.00000
      3       2.6335      1.00000
      4       2.6335      1.00000
      5       3.7108      1.00000
      6       3.7108      1.00000
      7       3.7108      1.00000
      8       3.7108      1.00000
      9       4.4128      1.00000
     10       4.4128      1.00000
     11       5.6805      0.00005
     12       5.6805      0.00005
     13      22.2015      0.00000
     14      22.2015      0.00000
     15      22.2016      0.00000
     16      22.2017      0.00000

 k-point     5 :       0.1667    0.1667    0.0000
  band No.  band energies     occupation 
      1      -1.6436      1.00000
      2       1.2560      1.00000
      3       1.3530      1.00000
      4       3.0131      1.00000
      5       3.2153      1.00000
      6       3.8454      1.00000
      7       4.2611      1.00000
      8       4.4618      1.00000
      9       4.5197      1.00000
     10       4.7863      1.00000
     11       5.6513      0.00108
     12      12.4557      0.00000
     13      13.7958      0.00000
     14      17.1066      0.00000
     15      21.8494      0.00000
     16      24.8626      0.00000

 k-point     6 :       0.3333    0.1667    0.0000
  band No.  band energies     occupation 
      1      -0.2804      1.00000
      2       1.5208      1.00000
      3       1.9604      1.00000
      4       2.8976      1.00000
      5       3.1057      1.00000
      6       3.6892      1.00000
      7       4.0468      1.00000
      8       4.1960      1.00000
      9       4.4159      1.00000
     10       4.7166      1.00000
     11       5.4869      0.94331
     12       8.8005      0.00000
     13      15.3466      0.00000
     14      19.4195      0.00000
     15      21.1795      0.00000
     16      22.4798      0.00000

 k-point     7 :       0.5000    0.1667    0.0000
  band No.  band energies     occupation 
      1       1.1015      1.00000
      2       1.1015      1.00000
      3       2.6546      1.00000
      4       2.6546      1.00000
      5       3.1082      1.00000
      6       3.1082      1.00000
      7       4.0369      1.00000
      8       4.0369      1.00000
      9       5.0099      1.00000
     10       5.0099      1.00000
     11       5.8361      0.00000
     12       5.8361      0.00000
     13      17.9824      0.00000
     14      17.9824      0.00000
     15      22.6837      0.00000
     16      22.6837      0.00000

 k-point     8 :       0.3333    0.3333    0.0000
  band No.  band energies     occupation 
      1       0.4556      1.00000
      2       1.2831      1.00000
      3       2.4998      1.00000
      4       2.8004      1.00000
      5       2.9144      1.00000
      6       3.6106      1.00000
      7       4.1493      1.00000
      8       4.4270      1.00000
      9       4.5496      1.00000
     10       5.1123      1.00000
     11       5.7797      0.00000
     12       8.6879      0.00000
     13      12.7870      0.00000
     14      17.2442      0.00000
     15      21.2391      0.00000
     16      22.8666      0.00000

 k-point     9 :       0.5000    0.3333    0.0000
  band No.  band energies     occupation 
      1       0.9210      1.00000
      2       0.9210      1.00000
      3       2.4872      1.00000
      4       2.4872      1.00000
      5       3.6348      1.00000
      6       3.6348      1.00000
      7       4.3925      1.00000
      8       4.3925      1.00000
      9       5.6192      0.01544
     10       5.6192      0.01544
     11       6.1008      0.00000
     12       6.1008      0.00000
     13      14.2161      0.00000
     14      14.2161      0.00000
     15      23.6674      0.00000
     16      23.6678      0.00000

 k-point    10 :       0.5000    0.5000    0.0000
  band No.  band energies     occupation 
      1       0.7743      1.00000
      2       0.7743      1.00000
      3       2.2557      1.00000
      4       2.2557      1.00000
      5       4.4977      1.00000
      6       4.4977      1.00000
      7       4.6120      1.00000
      8       4.6120      1.00000
      9       5.8445      0.00000
     10       5.8445      0.00000
     11       6.0548      0.00000
     12       6.0548      0.00000
     13      12.5926      0.00000
     14      12.5926      0.00000
     15      23.6123      0.00000
     16      23.6123      0.00000

 k-point    11 :       0.1667    0.1667    0.1667
[...]
     14      17.7745      0.00000
     15      22.5134      0.00000
     16      23.4956      0.00000

 k-point    13 :       0.5000    0.1667    0.1667
  band No.  band energies     occupation 
      1       2.3559      1.00000
      2       2.3559      1.00000
      3       4.4323      1.00000
      4       4.4323      1.00000
      5       4.9912      1.00000
      6       4.9912      1.00000
      7       6.7464      0.00000
      8       6.7464      0.00000
      9       7.7281      0.00000
     10       7.7281      0.00000
     11       8.8977      0.00000
     12       8.8977      0.00000
     13      19.6013      0.00000
     14      19.6013      0.00000
     15      20.2489      0.00000
     16      20.2489      0.00000

 k-point    14 :       0.3333    0.3333    0.1667
  band No.  band energies     occupation 
      1       1.7318      1.00000
      2       3.2785      1.00000
      3       4.3468      1.00000
      4       4.5084      1.00000
      5       4.5683      1.00000
      6       4.6764      1.00000
      7       7.1112      0.00000
      8       7.3916      0.00000
      9       7.7118      0.00000
     10       7.9362      0.00000
     11       8.3796      0.00000
     12      11.5648      0.00000
     13      14.8001      0.00000
     14      18.7557      0.00000
     15      19.1609      0.00000
     16      23.2640      0.00000

 k-point    15 :       0.5000    0.3333    0.1667
  band No.  band energies     occupation 
      1       2.6438      1.00000
      2       2.6438      1.00000
      3       4.2565      1.00000
      4       4.2565      1.00000
      5       4.9665      1.00000
      6       4.9665      1.00000
      7       7.2866      0.00000
      8       7.2866      0.00000
      9       7.8575      0.00000
     10       7.8575      0.00000
     11       9.6368      0.00000
     12       9.6368      0.00000
     13      16.2555      0.00000
     14      16.2555      0.00000
     15      20.9139      0.00000
     16      20.9139      0.00000

 k-point    16 :       0.5000    0.5000    0.1667
  band No.  band energies     occupation 
      1       2.6024      1.00000
      2       2.6024      1.00000
      3       4.0730      1.00000
      4       4.0730      1.00000
      5       5.5768      1.00000
      6       5.5768      1.00000
      7       7.5017      0.00000
      8       7.5017      0.00000
      9       7.8253      0.00000
     10       7.8253      0.00000
     11       9.9643      0.00000
     12       9.9643      0.00000
     13      14.7254      0.00000
     14      14.7254      0.00000
     15      22.1919      0.00000
     16      22.1919      0.00000

 k-point    17 :       0.3333    0.3333    0.3333
  band No.  band energies     occupation 
      1       2.8325      1.00000
      2       3.6856      1.00000
      3       4.1197      1.00000
      4       4.1198      1.00000
      5       4.2522      1.00000
      6       4.2523      1.00000
      7       7.5993      0.00000
      8       7.5995      0.00000
      9       7.6723      0.00000
     10       7.6725      0.00000
     11       9.6905      0.00000
     12      13.8266      0.00000
     13      13.8267      0.00000
     14      16.3622      0.00000
     15      19.7717      0.00000
     16      19.7717      0.00000

 k-point    18 :       0.5000    0.3333    0.3333
  band No.  band energies     occupation 
      1       3.4009      1.00000
      2       3.4009      1.00000
      3       4.0508      1.00000
      4       4.0508      1.00000
      5       4.3760      1.00000
      6       4.3760      1.00000
      7       7.5946      0.00000
      8       7.5946      0.00000
      9       7.8104      0.00000
     10       7.8104      0.00000
     11      11.3345      0.00000
     12      11.3345      0.00000
     13      16.5918      0.00000
     14      16.5918      0.00000
     15      17.6340      0.00000
     16      17.6340      0.00000

 k-point    19 :       0.5000    0.5000    0.3333
  band No.  band energies     occupation 
      1       3.5047      1.00000
      2       3.5047      1.00000
      3       3.9269      1.00000
      4       3.9269      1.00000
      5       4.5455      1.00000
      6       4.5455      1.00000
      7       7.7261      0.00000
      8       7.7261      0.00000
      9       7.8494      0.00000
     10       7.8494      0.00000
     11      12.5080      0.00000
     12      12.5080      0.00000
     13      14.9597      0.00000
     14      14.9597      0.00000
     15      18.7802      0.00000
     16      18.7802      0.00000

 k-point    20 :       0.5000    0.5000    0.5000
  band No.  band energies     occupation 
      1       4.0117      1.00000
      2       4.0117      1.00000
      3       4.0119      1.00000
      4       4.0119      1.00000
      5       4.0119      1.00000
      6       4.0119      1.00000
      7       7.8612      0.00000
      8       7.8612      0.00000
      9       7.8614      0.00000
     10       7.8614      0.00000
     11      15.4901      0.00000
     12      15.4901      0.00000
     13      15.4901      0.00000
     14      15.4901      0.00000
     15      15.4901      0.00000
     16      15.4901      0.00000


--------------------------------------------------------------------------------------------------------


 soft charge-density along one line, spin component           1
         0         1         2         3         4         5         6         7         8         9
 total charge-density along one line
 
 soft charge-density along one line, spin component           2
         0         1         2         3         4         5         6         7         8         9
 total charge-density along one line
 
 pseudopotential strength for first ion, spin component:           1
 -5.498   0.000   0.000   0.000  -0.000  -6.032   0.000   0.000
  0.000  -5.498  -0.000  -0.000  -0.000   0.000  -6.032  -0.000
  0.000  -0.000  -5.717   0.000   0.000   0.000  -0.000  -6.244
  0.000  -0.000   0.000  -5.498   0.000   0.000  -0.000   0.000
 -0.000  -0.000   0.000   0.000  -5.717  -0.000  -0.000   0.000
 -6.032   0.000   0.000   0.000  -0.000  -6.524   0.000   0.000
  0.000  -6.032  -0.000  -0.000  -0.000   0.000  -6.524  -0.000
  0.000  -0.000  -6.244   0.000   0.000   0.000  -0.000  -6.729
  0.000  -0.000   0.000  -6.032   0.000   0.000  -0.000   0.000
 -0.000  -0.000   0.000   0.000  -6.244  -0.000  -0.000   0.000
  0.000  -0.000   0.000  -0.000  -0.000   0.000  -0.000   0.000
  0.000  -0.000   0.000  -0.000  -0.000   0.000  -0.000   0.000
  0.000  -0.000   0.000   0.000   0.000   0.000  -0.000   0.000
  0.000  -0.000  -0.000  -0.000  -0.000   0.000  -0.000  -0.000
 -0.000   0.000   0.000  -0.000  -0.000  -0.000   0.000   0.000
  0.000  -0.000   0.000   0.000   0.000   0.000  -0.000   0.000
  0.000  -0.000  -0.000  -0.000  -0.000   0.000  -0.000  -0.000
 -0.000   0.000   0.000  -0.000  -0.000  -0.000   0.000   0.000
 pseudopotential strength for first ion, spin component:           2
 -4.128   0.000  -0.000   0.000  -0.000  -4.704   0.000  -0.000
  0.000  -4.128   0.000  -0.000   0.000   0.000  -4.704   0.000
 -0.000   0.000  -3.872   0.000  -0.000  -0.000   0.000  -4.456
  0.000  -0.000   0.000  -4.128   0.000   0.000  -0.000   0.000
 -0.000   0.000  -0.000   0.000  -3.872  -0.000   0.000  -0.000
 -4.704   0.000  -0.000   0.000  -0.000  -5.236   0.000  -0.000
  0.000  -4.704   0.000  -0.000   0.000   0.000  -5.236   0.000
 -0.000   0.000  -4.456   0.000  -0.000  -0.000   0.000  -4.997
  0.000  -0.000   0.000  -4.704   0.000   0.000  -0.000   0.000
 -0.000   0.000  -0.000   0.000  -4.456  -0.000   0.000  -0.000
  0.000  -0.000  -0.000  -0.000   0.000   0.000   0.000  -0.000
  0.000  -0.000  -0.000  -0.000   0.000   0.000  -0.000  -0.000
  0.000  -0.000   0.000  -0.000   0.000   0.000  -0.000   0.000
 -0.000  -0.000  -0.000  -0.000  -0.000   0.000  -0.000  -0.000
 -0.000  -0.000  -0.000  -0.000  -0.000  -0.000   0.000  -0.000
  0.000  -0.000   0.000  -0.000   0.000   0.000  -0.000   0.000
 -0.000  -0.000  -0.000  -0.000  -0.000   0.000  -0.000  -0.000
 -0.000  -0.000  -0.000  -0.000  -0.000  -0.000   0.000  -0.000
 total augmentation occupancy for first ion, spin component:           1
  2.192  -0.000   0.000  -0.000  -0.000  -1.220  -0.000   0.000   0.000   0.000  -0.000  -0.000   0.000   0.000   0.000   0.000
 -0.000   2.192  -0.000  -0.000   0.000  -0.000  -1.220   0.000   0.000   0.000  -0.000  -0.000   0.000   0.000   0.000  -0.000
 -0.000  -0.000   3.564  -0.000   0.000  -0.000   0.000  -2.339   0.000  -0.000   0.000  -0.000   0.000   0.000   0.000   0.000
 -0.000  -0.000  -0.000   2.192  -0.000   0.000   0.000   0.000  -1.220  -0.000   0.000  -0.000   0.000  -0.000   0.000   0.000
 -0.000   0.000   0.000  -0.000   3.564   0.000  -0.000  -0.000   0.000  -2.339  -0.000   0.000   0.000   0.000   0.000   0.000
 -1.220  -0.000  -0.000   0.000   0.000   1.653   0.000   0.000  -0.000  -0.000   0.000   0.000   0.000   0.000   0.000   0.000
 -0.000  -1.220   0.000   0.000   0.000   0.000   1.653   0.000   0.000  -0.000  -0.000   0.000   0.000   0.000  -0.000   0.000
  0.000   0.000  -2.339   0.000  -0.000   0.000   0.000   2.366   0.000   0.000  -0.000  -0.000   0.000   0.000   0.000   0.000
  0.000   0.000   0.000  -1.220   0.000  -0.000   0.000   0.000   1.653  -0.000   0.000  -0.000   0.000   0.000   0.000   0.000
  0.000   0.000  -0.000  -0.000  -2.339  -0.000   0.000   0.000  -0.000   2.366   0.000  -0.000   0.000   0.000   0.000   0.000
 -0.000  -0.000   0.000   0.000  -0.000   0.000  -0.000  -0.000   0.000   0.000   2.439  -0.286   0.000   0.000  -0.000   0.000
 -0.000  -0.000  -0.000  -0.000   0.000   0.000   0.000  -0.000  -0.000  -0.000  -0.286   0.039   0.000   0.000   0.000   0.000
  0.000   0.000   0.000   0.000   0.000   0.000   0.000   0.000   0.000   0.000   0.000   0.000   0.296   0.000   0.000  -0.026
  0.000   0.000   0.000  -0.000   0.000   0.000   0.000   0.000   0.000   0.000   0.000   0.000   0.000   0.296   0.000  -0.000
  0.000   0.000   0.000   0.000   0.000   0.000  -0.000   0.000   0.000   0.000  -0.000   0.000   0.000   0.000   0.296   0.000
  0.000  -0.000   0.000   0.000   0.000   0.000   0.000   0.000   0.000   0.000   0.000   0.000  -0.026  -0.000   0.000   0.002
  0.000   0.000   0.000   0.000   0.000   0.000   0.000   0.000   0.000   0.000   0.000   0.000   0.000  -0.026  -0.000   0.000
  0.000   0.000   0.000   0.000   0.000   0.000   0.000   0.000   0.000   0.000   0.000   0.000   0.000   0.000  -0.026  -0.000
 total augmentation occupancy for first ion, spin component:           2
  1.770   0.000   0.000  -0.000  -0.000  -0.727   0.000   0.000   0.000   0.000   0.000   0.000   0.000   0.000  -0.000   0.000
  0.000   1.770  -0.000   0.000   0.000  -0.000  -0.727  -0.000  -0.000   0.000  -0.000   0.000   0.000   0.000   0.000  -0.000
  0.000  -0.000   2.976  -0.000   0.000  -0.000  -0.000  -1.299  -0.000  -0.000   0.000   0.000   0.000   0.000   0.000   0.000
 -0.000   0.000  -0.000   1.770  -0.000  -0.000   0.000  -0.000  -0.727  -0.000   0.000   0.000   0.000   0.000   0.000   0.000
  0.000  -0.000   0.000  -0.000   2.976  -0.000  -0.000  -0.000   0.000  -1.299  -0.000  -0.000   0.000   0.000   0.000   0.000
 -0.727  -0.000  -0.000  -0.000  -0.000   0.058  -0.000   0.000  -0.000   0.000   0.000  -0.000   0.000   0.000   0.000   0.000
  0.000  -0.727   0.000   0.000  -0.000  -0.000   0.058  -0.000  -0.000   0.000  -0.000   0.000   0.000   0.000   0.000   0.000
  0.000  -0.000  -1.299  -0.000  -0.000   0.000  -0.000   0.323  -0.000  -0.000  -0.000  -0.000   0.000   0.000   0.000   0.000
  0.000  -0.000  -0.000  -0.727   0.000  -0.000  -0.000  -0.000   0.058   0.000  -0.000  -0.000   0.000  -0.000   0.000   0.000
 -0.000   0.000  -0.000  -0.000  -1.299   0.000   0.000  -0.000   0.000   0.323   0.000   0.000   0.000   0.000   0.000   0.000
  0.000  -0.000   0.000   0.000  -0.000   0.000  -0.000  -0.000  -0.000   0.000  -0.332   0.097   0.000   0.000   0.000   0.000
  0.000   0.000   0.000   0.000  -0.000  -0.000   0.000  -0.000  -0.000   0.000   0.097  -0.017   0.000   0.000  -0.000   0.000
  0.000   0.000   0.000   0.000   0.000   0.000   0.000   0.000   0.000   0.000   0.000   0.000  -0.041  -0.000  -0.000   0.006
  0.000   0.000   0.000   0.000   0.000   0.000   0.000   0.000  -0.000   0.000   0.000   0.000  -0.000  -0.041   0.000   0.000
 -0.000   0.000   0.000   0.000   0.000   0.000   0.000   0.000   0.000   0.000   0.000  -0.000  -0.000   0.000  -0.041   0.000
  0.000  -0.000   0.000   0.000   0.000   0.000   0.000   0.000   0.000   0.000   0.000   0.000   0.006   0.000   0.000  -0.001
  0.000   0.000   0.000   0.000   0.000   0.000   0.000   0.000   0.000   0.000   0.000   0.000  -0.000   0.006  -0.000  -0.000
  0.000   0.000   0.000   0.000   0.000   0.000   0.000   0.000   0.000   0.000  -0.000   0.000   0.000   0.000   0.006  -0.000


------------------------ aborting loop because EDIFF is reached ----------------------------------------





 total charge

# of ion       s       p       d       tot
------------------------------------------
    1        0.489   0.545   6.257   7.291
    2        0.489   0.545   6.257   7.291
--------------------------------------------------
tot          0.977   1.090  12.514  14.581



 magnetization (x)

# of ion       s       p       d       tot
------------------------------------------
    1       -0.017  -0.065   2.167   2.085
    2       -0.017  -0.065   2.167   2.085
--------------------------------------------------
tot         -0.033  -0.130   4.333   4.169
 
    CHARGE:  cpu time      0.0233: real time      0.0233
    FORLOC:  cpu time      0.0006: real time      0.0007
    FORNL :  cpu time      0.0236: real time      0.0237
    STRESS:  cpu time      0.0993: real time      0.0995
    FORCOR:  cpu time      0.0240: real time      0.0240
    FORHAR:  cpu time      0.0030: real time      0.0030
    MIXING:  cpu time      0.0010: real time      0.0010
    OFIELD:  cpu time      0.0000: real time      0.0000

  FORCE on cell =-STRESS in cart. coord.  units (eV):
  Direction    XX          YY          ZZ          XY          YZ          ZX
  --------------------------------------------------------------------------------------
  Alpha Z   122.92258   122.92258   122.92258
  Ewald    -396.05944  -396.05944  -396.05944     0.00000    -0.00000    -0.00000
  Hartree    62.93331    62.93331    62.93331    -0.00000    -0.00000    -0.00000
  E(xc)     -79.41650   -79.41650   -79.41650    -0.00000     0.00000     0.00000
  Local     118.52905   118.52905   118.52905    -0.00000     0.00000     0.00000
  n-local   -55.42830   -51.92247   -49.28948     1.92838    -0.68781     0.47332
  augment    77.23664    77.23664    77.23664    -0.00000     0.00000    -0.00000
  Kinetic   147.99585   145.79764   144.43882     2.61355    -0.35210     0.31990
  Fock        0.00000     0.00000     0.00000     0.00000     0.00000     0.00000
  -------------------------------------------------------------------------------------
  Total       0.00966     0.00966     0.00966     0.00000     0.00000    -0.00000
  in kB       0.68788     0.68788     0.68788     0.00000     0.00000    -0.00000
  external pressure =        0.69 kB  Pullay stress =        0.00 kB


 VOLUME and BASIS-vectors are now :
 -----------------------------------------------------------------------------
  energy-cutoff  :      520.00
  volume of cell :       22.49
      direct lattice vectors                 reciprocal lattice vectors
     2.822697313 -0.000000000 -0.000000000     0.354271071  0.000000000 -0.000000000
    -0.000000000  2.822697313 -0.000000000     0.000000000  0.354271071  0.000000000
     0.000000000 -0.000000000  2.822697313     0.000000000  0.000000000  0.354271071

  length of vectors
     2.822697313  2.822697313  2.822697313     0.354271071  0.354271071  0.354271071


 FORCES acting on ions
    electron-ion (+dipol)            ewald-force                    non-local-force                 convergence-correction
 -----------------------------------------------------------------------------------------------
   0.224E-13 0.311E-13 -.309E-13   -.185E-14 -.261E-14 -.267E-14   -.183E-23 -.138E-23 0.289E-24   -.199E-13 0.252E-13 0.180E-13
   0.156E-12 0.232E-12 -.117E-11   0.501E-15 0.392E-14 0.276E-15   -.917E-24 -.105E-23 -.828E-24   -.777E-14 0.223E-13 0.855E-14
 -----------------------------------------------------------------------------------------------
   0.178E-12 0.263E-12 -.120E-11   -.135E-14 0.131E-14 -.240E-14   -.275E-23 -.243E-23 -.538E-24   -.276E-13 0.475E-13 0.266E-13
 
 
 POSITION                                       TOTAL-FORCE (eV/Angst)
 -----------------------------------------------------------------------------------
      0.00000      0.00000      0.00000         0.000000      0.000000     -0.000000
      1.41135      1.41135      1.41135        -0.000000     -0.000000      0.000000
 -----------------------------------------------------------------------------------
    total drift:                                0.000000      0.000000     -0.000000


--------------------------------------------------------------------------------------------------------



  FREE ENERGIE OF THE ION-ELECTRON SYSTEM (eV)
  ---------------------------------------------------
  free  energy   TOTEN  =       -16.49952370 eV

  energy  without entropy=      -16.49801058  energy(sigma->0) =      -16.49876714
 d Force = 0.0000000E+00[ 0.000E+00, 0.000E+00]  d Energy = 0.1113180E-03-0.111E-03
 d Force = 0.0000000E+00[ 0.000E+00, 0.000E+00]  d Ewald  = 0.8219615E+00-0.822E+00
 


--------------------------------------------------------------------------------------------------------


    POTLOK:  cpu time      0.1595: real time      0.1599


--------------------------------------------------------------------------------------------------------




--------------------------------------------------------------------------------------------------------


  
 reached required accuracy - stopping structural energy minimisation
 writing wavefunctions
     LOOP+:  cpu time      1.6635: real time      1.6714
    4ORBIT:  cpu time      0.0000: real time      0.0000



 total charge

# of ion       s       p       d       tot
------------------------------------------
    1        0.489   0.545   6.257   7.291
    2        0.489   0.545   6.257   7.291
--------------------------------------------------
tot          0.977   1.090  12.514  14.581



 magnetization (x)

# of ion       s       p       d       tot
------------------------------------------
    1       -0.017  -0.065   2.167   2.085
    2       -0.017  -0.065   2.167   2.085
--------------------------------------------------
tot         -0.033  -0.130   4.333   4.169
 

 total amount of memory used by VASP MPI-rank0    37902. kBytes
=======================================================================

   base                                    :      30000. kBytes
   nonl-proj                               :       1886. kBytes
   fftplans                                :       1024. kBytes
   grid                                    :       3179. kBytes
   one-center                              :         62. kBytes
   wavefun                                 :       1751. kBytes
 
  
  
 General timing and accounting informations for this job:
 ========================================================
  
                  Total CPU time used (sec):       16.419
                            User time (sec):       16.221
                          System time (sec):        0.198
                         Elapsed time (sec):       16.847
  
                   Maximum memory used (kb):      223936.
                   Average memory used (kb):          N/A
  
                          Minor page faults:        36291
                          Major page faults:           69
                 Voluntary context switches:         1563
