    2    2  100    2
  0.1173411E+02  0.2863036E-09  0.2863036E-09  0.2863036E-09  0.5000000E-15
  1.000000000000000E-004
  CAR 
 unknown system                          
     16     20     16
 
  0.1276756E-14  0.1276756E-14  0.1276756E-14  0.4629630E-02
      1         -2.543818       -2.419000   1.000000   1.000000
      2          1.053768        2.809881   1.000000   1.000000
      3          1.053768        2.810042   1.000000   1.000000
      4          3.657603        5.465021   1.000000   1.000000
      5          3.657604        5.465170   1.000000   1.000000
      6          3.657604        5.465183   1.000000   1.000000
      7          4.875970        7.553548   1.000000   0.000000
      8          4.875971        7.553733   1.000000   0.000000
      9          6.117436        8.192601   0.000131   0.000000
     10          6.117437        8.192738   0.000131   0.000000
     11          6.117437        8.192752   0.000131   0.000000
     12         15.963149       16.182433   0.000000   0.000000
     13         15.963149       16.182434   0.000000   0.000000
     14         15.963149       16.182437   0.000000   0.000000
     15         21.707919       22.719479   0.000000   0.000000
     16         21.707921       22.719492   0.000000   0.000000
 
  0.1666667E+00  0.1276756E-14  0.1276756E-14  0.2777778E-01
      1         -1.971968       -1.843010   1.000000   1.000000
      2          1.293882        2.989498   1.000000   1.000000
      3          1.299908        3.101761   1.000000   1.000000
      4          3.659437        5.447580   1.000000   1.000000
      5          3.659438        5.447741   1.000000   1.000000
      6          3.815502        5.638621   1.000000   1.000000
      7          4.617681        7.219165   1.000000   0.000000
      8          4.977059        7.624766   1.000000   0.000000
      9          5.670650        7.624914   1.000000   0.000000
     10          5.670651        7.677151   1.000000   0.000000
     11          5.946050        8.000938   0.884525   0.000000
     12         12.973948       13.615354   0.000000   0.000000
     13         17.017615       17.362102   0.000000   0.000000
     14         17.017615       17.362106   0.000000   0.000000
     15         21.877156       22.838436   0.000000   0.000000
     16         23.463352       24.201048   0.000000   0.000000
 
  0.3333333E+00  0.1276756E-14  0.1276756E-14  0.2777778E-01
      1         -0.431379       -0.250865   1.000000   1.000000
      2          1.697699        3.033833   1.000000   1.000000
      3          1.983020        3.920930   1.000000   1.000000
      4          3.752483        5.504806   1.000000   1.000000
      5          3.752483        5.504962   1.000000   1.000000
      6          3.907234        6.119264   1.000000   0.000107
      7          4.251997        6.308112   1.000000   0.000000
      8          4.806561        6.610601   1.000000   0.000000
      9          4.806562        6.610747   1.000000   0.000000
     10          5.279294        7.483356   1.000000   0.000000
     11          5.482394        7.971069   1.000000   0.000000
     12          8.902394       10.212007   0.000000   0.000000
     13         19.665130       20.168659   0.000000   0.000000
     14         19.665131       20.168662   0.000000   0.000000
     15         22.446351       23.257703   0.000000   0.000000
     16         24.554329       25.119300   0.000000   0.000000
 
  0.5000000E+00  0.1276756E-14  0.1276756E-14  0.1388889E-01
      1          1.264427        1.807419   1.000000   1.000000
      2          1.264427        1.807419   1.000000   1.000000
      3          2.937518        5.089880   1.000000   1.000000
      4          2.937518        5.089880   1.000000   1.000000
      5          4.107889        5.851985   1.000000   0.999943
      6          4.107889        5.851985   1.000000   0.999943
      7          4.107890        5.852135   1.000000   0.999942
      8          4.107890        5.852135   1.000000   0.999942
      9          4.860384        6.792041   1.000000   0.000000
     10          4.860384        6.792041   1.000000   0.000000
     11          6.199099        8.489723   0.000000   0.000000
     12          6.199099        8.489723   0.000000   0.000000
     13         23.186444       23.745876   0.000000   0.000000
     14         23.186445       23.745876   0.000000   0.000000
     15         23.186448       23.745878   0.000000   0.000000
     16         23.186478       23.745878   0.000000   0.000000
 
  0.1666667E+00  0.1666667E+00  0.1276756E-14  0.5555556E-01
      1         -1.433071       -1.293665   1.000000   1.000000
      2          1.470950        3.234943   1.000000   1.000000
      3          1.575916        3.286593   1.000000   1.000000
      4          3.366691        5.118289   1.000000   1.000000
      5          3.579838        5.346721   1.000000   1.000000
      6          4.256335        6.116580   1.000000   0.000144
      7          4.690099        6.825017   1.000000   0.000000
      8          4.905177        7.126395   1.000000   0.000000
      9          4.971215        7.267375   1.000000   0.000000
     10          5.255658        7.587856   1.000000   0.000000
     11          6.185532        8.268392   0.000000   0.000000
     12         13.132447       13.868932   0.000000   0.000000
     13         14.563283       15.296943   0.000000   0.000000
     14         17.919373       18.321542   0.000000   0.000000
     15         22.739675       23.529543   0.000000   0.000000
     16         25.609376       26.121798   0.000000   0.000000
 
  0.3333333E+00  0.1666667E+00  0.1276756E-14  0.1111111E+00
      1         -0.037661        0.197162   1.000000   1.000000
      2          1.763118        3.199645   1.000000   1.000000
      3          2.223507        3.988653   1.000000   1.000000
      4          3.241744        4.951601   1.000000   1.000000
      5          3.454180        5.188008   1.000000   1.000000
      6          4.084013        5.828466   1.000000   0.999997
      7          4.462978        6.530122   1.000000   0.000000
      8          4.624778        6.782931   1.000000   0.000000
      9          4.864560        6.814360   1.000000   0.000000
     10          5.180487        7.864269   1.000000   0.000000
     11          6.009137        8.062968   0.278785   0.000000
     12          9.405171       10.664217   0.000000   0.000000
     13         16.160226       16.989334   0.000000   0.000000
     14         20.318373       20.818375   0.000000   0.000000
     15         22.082195       22.663337   0.000000   0.000000
     16         23.367583       23.978655   0.000000   0.000000
 
  0.5000000E+00  0.1666667E+00  0.1276756E-14  0.5555556E-01
      1          1.357570        2.046991   1.000000   1.000000
      2          1.357570        2.046991   1.000000   1.000000
      3          2.964140        4.796573   1.000000   1.000000
      4          2.964140        4.796573   1.000000   1.000000
      5          3.465015        5.164578   1.000000   1.000000
      6          3.465015        5.164578   1.000000   1.000000
      7          4.453782        6.485151   1.000000   0.000000
      8          4.453782        6.485151   1.000000   0.000000
      9          5.498702        7.486071   1.000000   0.000000
     10          5.498702        7.486071   1.000000   0.000000
     11          6.354067        8.521326   0.000000   0.000000
     12          6.354067        8.521326   0.000000   0.000000
     13         18.850262       19.610718   0.000000   0.000000
     14         18.850262       19.610718   0.000000   0.000000
     15         23.683574       24.232734   0.000000   0.000000
     16         23.683574       24.232737   0.000000   0.000000
 
  0.3333333E+00  0.3333333E+00  0.1276756E-14  0.5555556E-01
      1          0.692803        1.256493   1.000000   1.000000
      2          1.516775        2.915723   1.000000   1.000000
      3          2.816581        4.471264   1.000000   1.000000
      4          3.118477        4.710404   1.000000   1.000000
      5          3.257636        4.924008   1.000000   1.000000
      6          3.983403        5.196847   1.000000   1.000000
      7          4.575046        6.737718   1.000000   0.000000
      8          4.872503        7.279144   1.000000   0.000000
      9          5.001500        7.611493   1.000000   0.000000
     10          5.608850        7.715984   1.000000   0.000000
     11          6.323162        8.421484   0.000000   0.000000
     12          9.247375       10.388049   0.000000   0.000000
     13         13.593120       14.773570   0.000000   0.000000
     14         18.103517       18.912248   0.000000   0.000000
     15         22.195098       22.700158   0.000000   0.000000
     16         23.725163       24.116063   0.000000   0.000000
 
  0.5000000E+00  0.3333333E+00  0.1276756E-14  0.5555556E-01
      1          1.148621        2.234744   1.000000   1.000000
      2          1.148621        2.234744   1.000000   1.000000
      3          2.802516        4.438530   1.000000   1.000000
      4          2.802516        4.438530   1.000000   1.000000
      5          4.007504        5.417172   1.000000   1.000000
      6          4.007504        5.417172   1.000000   1.000000
      7          4.835750        7.164800   1.000000   0.000000
      8          4.835750        7.164800   1.000000   0.000000
      9          6.151236        8.223499   0.000002   0.000000
     10          6.151236        8.223499   0.000002   0.000000
     11          6.591105        8.388944   0.000000   0.000000
     12          6.591105        8.388944   0.000000   0.000000
     13         15.038121       16.090674   0.000000   0.000000
     14         15.038121       16.090674   0.000000   0.000000
     15         24.490075       24.638511   0.000000   0.000000
     16         24.490075       24.638530   0.000000   0.000000
 
  0.5000000E+00  0.5000000E+00  0.1276756E-14  0.1388889E-01
      1          0.988598        2.196047   1.000000   1.000000
      2          0.988598        2.196047   1.000000   1.000000
      3          2.555675        4.168030   1.000000   1.000000
      4          2.555675        4.168030   1.000000   1.000000
      5          4.950554        6.532875   1.000000   0.000000
      6          4.950554        6.532875   1.000000   0.000000
      7          5.070090        7.403670   1.000000   0.000000
      8          5.070090        7.403670   1.000000   0.000000
      9          6.392691        7.813335   0.000000   0.000000
     10          6.392691        7.813335   0.000000   0.000000
     11          6.466413        8.498931   0.000000   0.000000
     12          6.466413        8.498931   0.000000   0.000000
     13         13.413223       14.708297   0.000000   0.000000
     14         13.413223       14.708297   0.000000   0.000000
     15         24.398178       24.413485   0.000000   0.000000
     16         24.398178       24.413485   0.000000   0.000000
 
  0.1666667E+00  0.1666667E+00  0.1666667E+00  0.3703704E-01
      1         -0.912334       -0.761961   1.000000   1.000000
      2          1.744967        3.476289   1.000000   1.000000
      3          1.744967        3.476436   1.000000   1.000000
      4          3.272190        5.006353   1.000000   1.000000
      5          3.272190        5.006458   1.000000   1.000000
      6          4.146819        5.831162   1.000000   0.999996
      7          4.737327        6.609873   1.000000   0.000000
      8          4.813149        7.438093   1.000000   0.000000
      9          4.813149        7.438275   1.000000   0.000000
     10          5.744963        7.751033   1.000000   0.000000
     11          5.744964        7.751132   1.000000   0.000000
     12         14.032086       14.857170   0.000000   0.000000
     13         14.032087       14.857197   0.000000   0.000000
     14         15.728751       16.387019   0.000000   0.000000
     15         25.636895       25.933776   0.000000   0.000000
     16         25.636896       25.933779   0.000000   0.000000
 
  0.3333333E+00  0.1666667E+00  0.1666667E+00  0.1111111E+00
      1          0.392414        0.656888   1.000000   1.000000
      2          2.117379        3.500526   1.000000   1.000000
      3          2.181344        3.948924   1.000000   1.000000
      4          3.041448        4.757162   1.000000   1.000000
      5          3.157978        4.790839   1.000000   1.000000
      6          3.464289        5.140219   1.000000   1.000000
      7          4.605140        6.986893   1.000000   0.000000
      8          4.989717        7.054742   1.000000   0.000000
      9          5.080596        7.383559   1.000000   0.000000
     10          5.553156        7.814239   1.000000   0.000000
     11          5.784975        7.869978   1.000000   0.000000
     12         10.096358       11.347142   0.000000   0.000000
     13         16.146943       17.019955   0.000000   0.000000
     14         17.092024       17.774496   0.000000   0.000000
     15         21.963101       22.513442   0.000000   0.000000
     16         22.993800       23.495616   0.000000   0.000000
 
  0.5000000E+00  0.1666667E+00  0.1666667E+00  0.5555556E-01
      1          1.610256        2.355895   1.000000   1.000000
      2          1.610256        2.355895   1.000000   1.000000
      3          2.681372        4.432301   1.000000   1.000000
      4          2.681372        4.432301   1.000000   1.000000
      5          3.419498        4.991155   1.000000   1.000000
      6          3.419498        4.991155   1.000000   1.000000
      7          4.563664        6.746367   1.000000   0.000000
      8          4.563664        6.746367   1.000000   0.000000
      9          5.419614        7.728082   1.000000   0.000000
     10          5.419614        7.728082   1.000000   0.000000
     11          7.038897        8.897746   0.000000   0.000000
     12          7.038897        8.897746   0.000000   0.000000
     13         18.833412       19.601298   0.000000   0.000000
     14         18.833412       19.601298   0.000000   0.000000
     15         19.631428       20.248872   0.000000   0.000000
     16         19.631428       20.248872   0.000000   0.000000
 
  0.3333333E+00  0.3333333E+00  0.1666667E+00  0.1111111E+00
      1          1.170240        1.731771   1.000000   1.000000
      2          1.870759        3.278493   1.000000   1.000000
      3          2.731029        4.346787   1.000000   1.000000
      4          2.893176        4.508395   1.000000   1.000000
      5          3.047598        4.568325   1.000000   1.000000
      6          3.310702        4.676411   1.000000   1.000000
      7          4.876297        7.111194   1.000000   0.000000
      8          4.885541        7.391622   1.000000   0.000000
      9          5.009167        7.711766   1.000000   0.000000
     10          5.757911        7.936216   1.000000   0.000000
     11          6.569402        8.379630   0.000000   0.000000
     12         10.428113       11.564795   0.000000   0.000000
     13         13.678993       14.800074   0.000000   0.000000
     14         18.097019       18.755733   0.000000   0.000000
     15         18.412925       19.160890   0.000000   0.000000
     16         22.906950       23.263999   0.000000   0.000000
 
  0.5000000E+00  0.3333333E+00  0.1666667E+00  0.1111111E+00
      1          1.529615        2.643757   1.000000   1.000000
      2          1.529615        2.643757   1.000000   1.000000
      3          2.668658        4.256489   1.000000   1.000000
      4          2.668658        4.256489   1.000000   1.000000
      5          3.714931        4.966529   1.000000   1.000000
      6          3.714931        4.966529   1.000000   1.000000
      7          4.881948        7.286630   1.000000   0.000000
      8          4.881948        7.286630   1.000000   0.000000
      9          5.369196        7.857464   1.000000   0.000000
     10          5.369196        7.857464   1.000000   0.000000
     11          8.116668        9.636831   0.000000   0.000000
     12          8.116668        9.636831   0.000000   0.000000
     13         15.280603       16.255538   0.000000   0.000000
     14         15.280603       16.255538   0.000000   0.000000
     15         20.378541       20.913908   0.000000   0.000000
     16         20.378541       20.913908   0.000000   0.000000
 
  0.5000000E+00  0.5000000E+00  0.1666667E+00  0.2777778E-01
      1          1.370524        2.602383   1.000000   1.000000
      2          1.370524        2.602383   1.000000   1.000000
      3          2.509268        4.073035   1.000000   1.000000
      4          2.509268        4.073035   1.000000   1.000000
      5          4.631614        5.576774   1.000000   1.000000
      6          4.631614        5.576774   1.000000   1.000000
      7          4.997108        7.501706   1.000000   0.000000
      8          4.997108        7.501706   1.000000   0.000000
      9          5.079154        7.825311   1.000000   0.000000
     10          5.079154        7.825311   1.000000   0.000000
     11          8.741492        9.964289   0.000000   0.000000
     12          8.741492        9.964289   0.000000   0.000000
     13         13.503016       14.725433   0.000000   0.000000
     14         13.503016       14.725433   0.000000   0.000000
     15         21.857942       22.191930   0.000000   0.000000
     16         21.857942       22.191930   0.000000   0.000000
 
  0.3333333E+00  0.3333333E+00  0.3333333E+00  0.3703704E-01
      1          2.251322        2.832541   1.000000   1.000000
      2          2.256092        3.685612   1.000000   1.000000
      3          2.594167        4.119682   1.000000   1.000000
      4          2.594167        4.119780   1.000000   1.000000
      5          2.826734        4.252184   1.000000   1.000000
      6          2.826734        4.252277   1.000000   1.000000
      7          5.011598        7.599300   1.000000   0.000000
      8          5.011599        7.599454   1.000000   0.000000
      9          5.190256        7.672338   1.000000   0.000000
     10          5.190256        7.672519   1.000000   0.000000
     11          8.077522        9.690529   0.000000   0.000000
     12         12.817542       13.826650   0.000000   0.000000
     13         12.817543       13.826683   0.000000   0.000000
     14         15.521675       16.362169   0.000000   0.000000
     15         19.157755       19.771686   0.000000   0.000000
     16         19.157755       19.771691   0.000000   0.000000
 
  0.5000000E+00  0.3333333E+00  0.3333333E+00  0.5555556E-01
      1          2.146282        3.400914   1.000000   1.000000
      2          2.146282        3.400914   1.000000   1.000000
      3          2.610435        4.050762   1.000000   1.000000
      4          2.610435        4.050762   1.000000   1.000000
      5          3.176564        4.376049   1.000000   1.000000
      6          3.176564        4.376049   1.000000   1.000000
      7          5.022028        7.594621   1.000000   0.000000
      8          5.022028        7.594621   1.000000   0.000000
      9          5.148642        7.810407   1.000000   0.000000
     10          5.148642        7.810407   1.000000   0.000000
     11         10.056874       11.334478   0.000000   0.000000
     12         10.056874       11.334478   0.000000   0.000000
     13         15.764948       16.591808   0.000000   0.000000
     14         15.764948       16.591808   0.000000   0.000000
     15         16.915628       17.634024   0.000000   0.000000
     16         16.915628       17.634024   0.000000   0.000000
 
  0.5000000E+00  0.5000000E+00  0.3333333E+00  0.2777778E-01
      1          2.222684        3.504678   1.000000   1.000000
      2          2.222684        3.504678   1.000000   1.000000
      3          2.481628        3.926898   1.000000   1.000000
      4          2.481628        3.926898   1.000000   1.000000
      5          3.393658        4.545529   1.000000   1.000000
      6          3.393658        4.545529   1.000000   1.000000
      7          5.078705        7.726106   1.000000   0.000000
      8          5.078705        7.726106   1.000000   0.000000
      9          5.097336        7.849352   1.000000   0.000000
     10          5.097336        7.849352   1.000000   0.000000
     11         11.506171       12.508037   0.000000   0.000000
     12         11.506171       12.508037   0.000000   0.000000
     13         13.943721       14.959687   0.000000   0.000000
     14         13.943721       14.959687   0.000000   0.000000
     15         18.164656       18.780235   0.000000   0.000000
     16         18.164656       18.780235   0.000000   0.000000
 
  0.5000000E+00  0.5000000E+00  0.5000000E+00  0.4629630E-02
      1          2.709326        4.011744   1.000000   1.000000
      2          2.709326        4.011744   1.000000   1.000000
      3          2.709326        4.011858   1.000000   1.000000
      4          2.709326        4.011858   1.000000   1.000000
      5          2.709326        4.011867   1.000000   1.000000
      6          2.709326        4.011867   1.000000   1.000000
      7          5.106453        7.861237   1.000000   0.000000
      8          5.106453        7.861237   1.000000   0.000000
      9          5.106454        7.861425   1.000000   0.000000
     10          5.106454        7.861425   1.000000   0.000000
     11         14.667111       15.490100   0.000000   0.000000
     12         14.667111       15.490100   0.000000   0.000000
     13         14.667112       15.490124   0.000000   0.000000
     14         14.667112       15.490124   0.000000   0.000000
     15         14.667112       15.490127   0.000000   0.000000
     16         14.667112       15.490127   0.000000   0.000000
