PROCAR lm decomposed
# of k-points:   20         # of bands:   16         # of ions:    2

 k-point     1 :    0.00000000 0.00000000 0.00000000     weight = 0.00462963

band     1 # energy   -2.54381839 # occ.  1.00000000
 
ion      s     py     pz     px    dxy    dyz    dz2    dxz  x2-y2    tot
    1  0.370  0.000  0.000  0.000  0.000  0.000  0.000  0.000  0.000  0.370
    2  0.370  0.000  0.000  0.000  0.000  0.000  0.000  0.000  0.000  0.370
tot    0.740  0.000  0.000  0.000  0.000  0.000  0.000  0.000  0.000  0.740
 
band     2 # energy    1.05376757 # occ.  1.00000000
 
ion      s     py     pz     px    dxy    dyz    dz2    dxz  x2-y2    tot
    1  0.000  0.000  0.000  0.000  0.000  0.000  0.018  0.000  0.421  0.439
    2  0.000  0.000  0.000  0.000  0.000  0.000  0.018  0.000  0.421  0.439
tot    0.000  0.000  0.000  0.000  0.000  0.000  0.037  0.000  0.842  0.878
 
band     3 # energy    1.05376803 # occ.  1.00000000
 
ion      s     py     pz     px    dxy    dyz    dz2    dxz  x2-y2    tot
    1  0.000  0.000  0.000  0.000  0.000  0.000  0.421  0.000  0.018  0.439
    2  0.000  0.000  0.000  0.000  0.000  0.000  0.421  0.000  0.018  0.439
tot    0.000  0.000  0.000  0.000  0.000  0.000  0.842  0.000  0.037  0.878
 
band     4 # energy    3.65760341 # occ.  1.00000000
 
ion      s     py     pz     px    dxy    dyz    dz2    dxz  x2-y2    tot
    1  0.000  0.000  0.000  0.000  0.490  0.000  0.000  0.000  0.000  0.490
    2  0.000  0.000  0.000  0.000  0.490  0.000  0.000  0.000  0.000  0.490
tot    0.000  0.000  0.000  0.000  0.980  0.000  0.000  0.000  0.000  0.980
 
band     5 # energy    3.65760393 # occ.  1.00000000
 
ion      s     py     pz     px    dxy    dyz    dz2    dxz  x2-y2    tot
    1  0.000  0.000  0.000  0.000  0.000  0.000  0.000  0.490  0.000  0.490
    2  0.000  0.000  0.000  0.000  0.000  0.000  0.000  0.490  0.000  0.490
tot    0.000  0.000  0.000  0.000  0.000  0.000  0.000  0.980  0.000  0.980
 
band     6 # energy    3.65760395 # occ.  1.00000000
 
ion      s     py     pz     px    dxy    dyz    dz2    dxz  x2-y2    tot
    1  0.000  0.000  0.000  0.000  0.000  0.490  0.000  0.000  0.000  0.490
    2  0.000  0.000  0.000  0.000  0.000  0.490  0.000  0.000  0.000  0.490
tot    0.000  0.000  0.000  0.000  0.000  0.980  0.000  0.000  0.000  0.980
 
band     7 # energy    4.87597019 # occ.  1.00000000
 
ion      s     py     pz     px    dxy    dyz    dz2    dxz  x2-y2    tot
    1  0.000  0.000  0.000  0.000  0.000  0.000  0.468  0.000  0.018  0.485
    2  0.000  0.000  0.000  0.000  0.000  0.000  0.468  0.000  0.018  0.485
tot    0.000  0.000  0.000  0.000  0.000  0.000  0.935  0.000  0.035  0.971
 
band     8 # energy    4.87597075 # occ.  1.00000000
 
ion      s     py     pz     px    dxy    dyz    dz2    dxz  x2-y2    tot
    1  0.000  0.000  0.000  0.000  0.000  0.000  0.018  0.000  0.468  0.485
    2  0.000  0.000  0.000  0.000  0.000  0.000  0.018  0.000  0.468  0.485
tot    0.000  0.000  0.000  0.000  0.000  0.000  0.035  0.000  0.935  0.971
 
band     9 # energy    6.11743583 # occ.  0.00013132
 
ion      s     py     pz     px    dxy    dyz    dz2    dxz  x2-y2    tot
    1  0.000  0.000  0.000  0.000  0.494  0.000  0.000  0.000  0.000  0.494
    2  0.000  0.000  0.000  0.000  0.494  0.000  0.000  0.000  0.000  0.494
tot    0.000  0.000  0.000  0.000  0.988  0.000  0.000  0.000  0.000  0.988
 
band    10 # energy    6.11743707 # occ.  0.00013130
 
ion      s     py     pz     px    dxy    dyz    dz2    dxz  x2-y2    tot
    1  0.000  0.000  0.000  0.000  0.000  0.000  0.000  0.494  0.000  0.494
    2  0.000  0.000  0.000  0.000  0.000  0.000  0.000  0.494  0.000  0.494
tot    0.000  0.000  0.000  0.000  0.000  0.000  0.000  0.988  0.000  0.988
 
band    11 # energy    6.11743709 # occ.  0.00013130
 
ion      s     py     pz     px    dxy    dyz    dz2    dxz  x2-y2    tot
    1  0.000  0.000  0.000  0.000  0.000  0.494  0.000  0.000  0.000  0.494
    2  0.000  0.000  0.000  0.000  0.000  0.494  0.000  0.000  0.000  0.494
tot    0.000  0.000  0.000  0.000  0.000  0.988  0.000  0.000  0.000  0.988
 
band    12 # energy   15.96314882 # occ.  0.00000000
 
ion      s     py     pz     px    dxy    dyz    dz2    dxz  x2-y2    tot
    1  0.000  0.000  0.000  0.378  0.000  0.000  0.000  0.000  0.000  0.378
    2  0.000  0.000  0.000  0.378  0.000  0.000  0.000  0.000  0.000  0.378
tot    0.000  0.000  0.000  0.757  0.000  0.000  0.000  0.000  0.000  0.757
 
band    13 # energy   15.96314894 # occ.  0.00000000
 
ion      s     py     pz     px    dxy    dyz    dz2    dxz  x2-y2    tot
    1  0.000  0.378  0.000  0.000  0.000  0.000  0.000  0.000  0.000  0.378
    2  0.000  0.378  0.000  0.000  0.000  0.000  0.000  0.000  0.000  0.378
tot    0.000  0.757  0.000  0.000  0.000  0.000  0.000  0.000  0.000  0.757
 
band    14 # energy   15.96314907 # occ.  0.00000000
 
ion      s     py     pz     px    dxy    dyz    dz2    dxz  x2-y2    tot
    1  0.000  0.000  0.378  0.000  0.000  0.000  0.000  0.000  0.000  0.378
    2  0.000  0.000  0.378  0.000  0.000  0.000  0.000  0.000  0.000  0.378
tot    0.000  0.000  0.757  0.000  0.000  0.000  0.000  0.000  0.000  0.757
 
band    15 # energy   21.70791928 # occ.  0.00000000
 
ion      s     py     pz     px    dxy    dyz    dz2    dxz  x2-y2    tot
    1  0.000  0.000  0.000  0.000  0.000  0.000  0.481  0.000  0.000  0.481
    2  0.000  0.000  0.000  0.000  0.000  0.000  0.481  0.000  0.000  0.481
tot    0.000  0.000  0.000  0.000  0.000  0.000  0.962  0.000  0.000  0.962
 
band    16 # energy   21.70792092 # occ.  0.00000000
 
ion      s     py     pz     px    dxy    dyz    dz2    dxz  x2-y2    tot
    1  0.000  0.000  0.000  0.000  0.000  0.000  0.000  0.000  0.481  0.481
    2  0.000  0.000  0.000  0.000  0.000  0.000  0.000  0.000  0.481  0.481
tot    0.000  0.000  0.000  0.000  0.000  0.000  0.000  0.000  0.962  0.962
 

 k-point     2 :    0.16666667 0.00000000 0.00000000     weight = 0.02777778

band     1 # energy   -1.97196760 # occ.  1.00000000
 
ion      s     py     pz     px    dxy    dyz    dz2    dxz  x2-y2    tot
    1  0.349  0.000  0.000  0.020  0.000  0.000  0.000  0.000  0.001  0.371
    2  0.349  0.000  0.000  0.020  0.000  0.000  0.000  0.000  0.001  0.371
tot    0.698  0.000  0.000  0.041  0.000  0.000  0.001  0.000  0.002  0.741
 
band     2 # energy    1.29388182 # occ.  1.00000000
 
ion      s     py     pz     px    dxy    dyz    dz2    dxz  x2-y2    tot
    1  0.001  0.000  0.000  0.015  0.000  0.000  0.105  0.000  0.316  0.438
    2  0.001  0.000  0.000  0.015  0.000  0.000  0.105  0.000  0.316  0.438
tot    0.003  0.000  0.000  0.031  0.000  0.000  0.211  0.000  0.632  0.876
 
band     3 # energy    1.29990780 # occ.  1.00000000
 
ion      s     py     pz     px    dxy    dyz    dz2    dxz  x2-y2    tot
    1  0.000  0.000  0.000  0.000  0.000  0.000  0.330  0.000  0.110  0.440
    2  0.000  0.000  0.000  0.000  0.000  0.000  0.330  0.000  0.110  0.440
tot    0.000  0.000  0.000  0.000  0.000  0.000  0.661  0.000  0.220  0.881
 
band     4 # energy    3.65943704 # occ.  1.00000000
 
ion      s     py     pz     px    dxy    dyz    dz2    dxz  x2-y2    tot
    1  0.000  0.002  0.000  0.000  0.486  0.000  0.000  0.000  0.000  0.488
    2  0.000  0.002  0.000  0.000  0.486  0.000  0.000  0.000  0.000  0.488
tot    0.000  0.004  0.000  0.000  0.972  0.000  0.000  0.000  0.000  0.976
 
band     5 # energy    3.65943756 # occ.  1.00000000
 
ion      s     py     pz     px    dxy    dyz    dz2    dxz  x2-y2    tot
    1  0.000  0.000  0.002  0.000  0.000  0.000  0.000  0.486  0.000  0.488
    2  0.000  0.000  0.002  0.000  0.000  0.000  0.000  0.486  0.000  0.488
tot    0.000  0.000  0.004  0.000  0.000  0.000  0.000  0.972  0.000  0.976
 
band     6 # energy    3.81550223 # occ.  1.00000000
 
ion      s     py     pz     px    dxy    dyz    dz2    dxz  x2-y2    tot
    1  0.000  0.000  0.000  0.000  0.000  0.489  0.000  0.000  0.000  0.489
    2  0.000  0.000  0.000  0.000  0.000  0.489  0.000  0.000  0.000  0.489
tot    0.000  0.000  0.000  0.000  0.000  0.978  0.000  0.000  0.000  0.978
 
band     7 # energy    4.61768075 # occ.  1.00000000
 
ion      s     py     pz     px    dxy    dyz    dz2    dxz  x2-y2    tot
    1  0.000  0.000  0.000  0.000  0.000  0.000  0.360  0.000  0.120  0.480
    2  0.000  0.000  0.000  0.000  0.000  0.000  0.360  0.000  0.120  0.480
tot    0.000  0.000  0.000  0.000  0.000  0.000  0.720  0.000  0.240  0.960
 
band     8 # energy    4.97705863 # occ.  1.00000000
 
ion      s     py     pz     px    dxy    dyz    dz2    dxz  x2-y2    tot
    1  0.001  0.000  0.000  0.000  0.000  0.000  0.122  0.000  0.365  0.487
    2  0.001  0.000  0.000  0.000  0.000  0.000  0.122  0.000  0.365  0.487
tot    0.001  0.000  0.000  0.000  0.000  0.000  0.243  0.000  0.730  0.975
 
band     9 # energy    5.67064977 # occ.  1.00000000
 
ion      s     py     pz     px    dxy    dyz    dz2    dxz  x2-y2    tot
    1  0.000  0.010  0.000  0.000  0.478  0.000  0.000  0.000  0.000  0.488
    2  0.000  0.010  0.000  0.000  0.478  0.000  0.000  0.000  0.000  0.488
tot    0.000  0.021  0.000  0.000  0.955  0.000  0.000  0.000  0.000  0.976
 
band    10 # energy    5.67065084 # occ.  1.00000000
 
ion      s     py     pz     px    dxy    dyz    dz2    dxz  x2-y2    tot
    1  0.000  0.000  0.010  0.000  0.000  0.000  0.000  0.478  0.000  0.488
    2  0.000  0.000  0.010  0.000  0.000  0.000  0.000  0.478  0.000  0.488
tot    0.000  0.000  0.021  0.000  0.000  0.000  0.000  0.955  0.000  0.976
 
band    11 # energy    5.94604977 # occ.  0.88452467
 
ion      s     py     pz     px    dxy    dyz    dz2    dxz  x2-y2    tot
    1  0.000  0.000  0.000  0.000  0.000  0.493  0.000  0.000  0.000  0.493
    2  0.000  0.000  0.000  0.000  0.000  0.493  0.000  0.000  0.000  0.493
tot    0.000  0.000  0.000  0.000  0.000  0.985  0.000  0.000  0.000  0.985
 
band    12 # energy   12.97394798 # occ.  0.00000000
 
ion      s     py     pz     px    dxy    dyz    dz2    dxz  x2-y2    tot
    1  0.060  0.000  0.000  0.265  0.000  0.000  0.020  0.000  0.061  0.407
    2  0.060  0.000  0.000  0.265  0.000  0.000  0.020  0.000  0.061  0.407
tot    0.121  0.000  0.000  0.530  0.000  0.000  0.041  0.000  0.122  0.813
 
band    13 # energy   17.01761501 # occ.  0.00000000
 
ion      s     py     pz     px    dxy    dyz    dz2    dxz  x2-y2    tot
    1  0.000  0.355  0.000  0.000  0.039  0.000  0.000  0.000  0.000  0.394
    2  0.000  0.355  0.000  0.000  0.039  0.000  0.000  0.000  0.000  0.394
tot    0.000  0.711  0.000  0.000  0.078  0.000  0.000  0.000  0.000  0.789
 
band    14 # energy   17.01761532 # occ.  0.00000000
 
ion      s     py     pz     px    dxy    dyz    dz2    dxz  x2-y2    tot
    1  0.000  0.000  0.355  0.000  0.000  0.000  0.000  0.039  0.000  0.394
    2  0.000  0.000  0.355  0.000  0.000  0.000  0.000  0.039  0.000  0.394
tot    0.000  0.000  0.711  0.000  0.000  0.000  0.000  0.078  0.000  0.789
 
band    15 # energy   21.87715617 # occ.  0.00000000
 
ion      s     py     pz     px    dxy    dyz    dz2    dxz  x2-y2    tot
    1  0.000  0.000  0.000  0.000  0.000  0.000  0.352  0.000  0.117  0.469
    2  0.000  0.000  0.000  0.000  0.000  0.000  0.352  0.000  0.117  0.469
tot    0.000  0.000  0.000  0.000  0.000  0.000  0.703  0.000  0.234  0.938
 
band    16 # energy   23.46335220 # occ.  0.00000000
 
ion      s     py     pz     px    dxy    dyz    dz2    dxz  x2-y2    tot
    1  0.075  0.000  0.000  0.004  0.000  0.000  0.084  0.000  0.252  0.415
    2  0.075  0.000  0.000  0.004  0.000  0.000  0.084  0.000  0.252  0.415
tot    0.150  0.000  0.000  0.009  0.000  0.000  0.168  0.000  0.504  0.831
 

 k-point     3 :    0.33333333 0.00000000 0.00000000     weight = 0.02777778

band     1 # energy   -0.43137913 # occ.  1.00000000
 
ion      s     py     pz     px    dxy    dyz    dz2    dxz  x2-y2    tot
    1  0.280  0.000  0.000  0.072  0.000  0.000  0.005  0.000  0.016  0.374
    2  0.280  0.000  0.000  0.072  0.000  0.000  0.005  0.000  0.016  0.374
tot    0.561  0.000  0.000  0.144  0.000  0.000  0.011  0.000  0.032  0.748
 
band     2 # energy    1.69769912 # occ.  1.00000000
 
ion      s     py     pz     px    dxy    dyz    dz2    dxz  x2-y2    tot
    1  0.025  0.000  0.000  0.058  0.000  0.000  0.086  0.000  0.259  0.428
    2  0.025  0.000  0.000  0.058  0.000  0.000  0.086  0.000  0.259  0.428
tot    0.050  0.000  0.000  0.116  0.000  0.000  0.172  0.000  0.517  0.856
 
band     3 # energy    1.98301959 # occ.  1.00000000
 
ion      s     py     pz     px    dxy    dyz    dz2    dxz  x2-y2    tot
    1  0.000  0.000  0.000  0.000  0.000  0.000  0.333  0.000  0.111  0.445
    2  0.000  0.000  0.000  0.000  0.000  0.000  0.333  0.000  0.111  0.445
tot    0.000  0.000  0.000  0.000  0.000  0.000  0.667  0.000  0.222  0.889
 
band     4 # energy    3.75248275 # occ.  1.00000000
 
ion      s     py     pz     px    dxy    dyz    dz2    dxz  x2-y2    tot
    1  0.000  0.008  0.000  0.000  0.476  0.000  0.000  0.000  0.000  0.483
    2  0.000  0.008  0.000  0.000  0.476  0.000  0.000  0.000  0.000  0.483
tot    0.000  0.016  0.000  0.000  0.951  0.000  0.000  0.000  0.000  0.967
 
band     5 # energy    3.75248328 # occ.  1.00000000
 
ion      s     py     pz     px    dxy    dyz    dz2    dxz  x2-y2    tot
    1  0.000  0.000  0.008  0.000  0.000  0.000  0.000  0.476  0.000  0.483
    2  0.000  0.000  0.008  0.000  0.000  0.000  0.000  0.476  0.000  0.483
tot    0.000  0.000  0.016  0.000  0.000  0.000  0.000  0.951  0.000  0.967
 
band     6 # energy    3.90723403 # occ.  1.00000000
 
ion      s     py     pz     px    dxy    dyz    dz2    dxz  x2-y2    tot
    1  0.000  0.000  0.000  0.000  0.000  0.000  0.350  0.000  0.117  0.467
    2  0.000  0.000  0.000  0.000  0.000  0.000  0.350  0.000  0.117  0.467
tot    0.000  0.000  0.000  0.000  0.000  0.000  0.701  0.000  0.234  0.935
 
band     7 # energy    4.25199709 # occ.  1.00000000
 
ion      s     py     pz     px    dxy    dyz    dz2    dxz  x2-y2    tot
    1  0.000  0.000  0.000  0.000  0.000  0.488  0.000  0.000  0.000  0.488
    2  0.000  0.000  0.000  0.000  0.000  0.488  0.000  0.000  0.000  0.488
tot    0.000  0.000  0.000  0.000  0.000  0.975  0.000  0.000  0.000  0.975
 
band     8 # energy    4.80656127 # occ.  1.00000000
 
ion      s     py     pz     px    dxy    dyz    dz2    dxz  x2-y2    tot
    1  0.000  0.019  0.000  0.000  0.462  0.000  0.000  0.000  0.000  0.481
    2  0.000  0.019  0.000  0.000  0.462  0.000  0.000  0.000  0.000  0.481
tot    0.000  0.037  0.000  0.000  0.925  0.000  0.000  0.000  0.000  0.962
 
band     9 # energy    4.80656208 # occ.  1.00000000
 
ion      s     py     pz     px    dxy    dyz    dz2    dxz  x2-y2    tot
    1  0.000  0.000  0.019  0.000  0.000  0.000  0.000  0.462  0.000  0.481
    2  0.000  0.000  0.019  0.000  0.000  0.000  0.000  0.462  0.000  0.481
tot    0.000  0.000  0.037  0.000  0.000  0.000  0.000  0.925  0.000  0.962
 
band    10 # energy    5.27929426 # occ.  1.00000000
 
ion      s     py     pz     px    dxy    dyz    dz2    dxz  x2-y2    tot
    1  0.014  0.000  0.000  0.003  0.000  0.000  0.118  0.000  0.354  0.489
    2  0.014  0.000  0.000  0.003  0.000  0.000  0.118  0.000  0.354  0.489
tot    0.028  0.000  0.000  0.007  0.000  0.000  0.236  0.000  0.708  0.978
 
band    11 # energy    5.48239370 # occ.  1.00000000
 
ion      s     py     pz     px    dxy    dyz    dz2    dxz  x2-y2    tot
    1  0.000  0.000  0.000  0.000  0.000  0.489  0.000  0.000  0.000  0.489
    2  0.000  0.000  0.000  0.000  0.000  0.489  0.000  0.000  0.000  0.489
tot    0.000  0.000  0.000  0.000  0.000  0.979  0.000  0.000  0.000  0.979
 
band    12 # energy    8.90239448 # occ.  0.00000000
 
ion      s     py     pz     px    dxy    dyz    dz2    dxz  x2-y2    tot
    1  0.114  0.000  0.000  0.154  0.000  0.000  0.041  0.000  0.122  0.431
    2  0.114  0.000  0.000  0.154  0.000  0.000  0.041  0.000  0.122  0.431
tot    0.228  0.000  0.000  0.308  0.000  0.000  0.081  0.000  0.244  0.862
 
band    13 # energy   19.66513013 # occ.  0.00000000
 
ion      s     py     pz     px    dxy    dyz    dz2    dxz  x2-y2    tot
    1  0.000  0.309  0.000  0.000  0.120  0.000  0.000  0.000  0.000  0.429
    2  0.000  0.309  0.000  0.000  0.120  0.000  0.000  0.000  0.000  0.429
tot    0.000  0.618  0.000  0.000  0.239  0.000  0.000  0.000  0.000  0.858
 
band    14 # energy   19.66513073 # occ.  0.00000000
 
ion      s     py     pz     px    dxy    dyz    dz2    dxz  x2-y2    tot
    1  0.000  0.000  0.309  0.000  0.000  0.000  0.000  0.120  0.000  0.429
    2  0.000  0.000  0.309  0.000  0.000  0.000  0.000  0.120  0.000  0.429
tot    0.000  0.000  0.618  0.000  0.000  0.000  0.000  0.239  0.000  0.858
 
band    15 # energy   22.44635139 # occ.  0.00000000
 
ion      s     py     pz     px    dxy    dyz    dz2    dxz  x2-y2    tot
    1  0.000  0.000  0.000  0.000  0.000  0.000  0.324  0.000  0.108  0.432
    2  0.000  0.000  0.000  0.000  0.000  0.000  0.324  0.000  0.108  0.432
tot    0.000  0.000  0.000  0.000  0.000  0.000  0.648  0.000  0.216  0.864
 
band    16 # energy   24.55432944 # occ.  0.00000000
 
ion      s     py     pz     px    dxy    dyz    dz2    dxz  x2-y2    tot
    1  0.151  0.000  0.000  0.024  0.000  0.000  0.036  0.000  0.109  0.321
    2  0.151  0.000  0.000  0.024  0.000  0.000  0.036  0.000  0.109  0.321
tot    0.303  0.000  0.000  0.049  0.000  0.000  0.073  0.000  0.218  0.642
 

 k-point     4 :    0.50000000 0.00000000 0.00000000     weight = 0.01388889

band     1 # energy    1.26442739 # occ.  1.00000000
 
ion      s     py     pz     px    dxy    dyz    dz2    dxz  x2-y2    tot
    1  0.028  0.000  0.000  0.186  0.000  0.000  0.008  0.000  0.023  0.245
    2  0.253  0.000  0.000  0.021  0.000  0.000  0.068  0.000  0.203  0.544
tot    0.282  0.000  0.000  0.207  0.000  0.000  0.075  0.000  0.225  0.789
 
band     2 # energy    1.26442739 # occ.  1.00000000
 
ion      s     py     pz     px    dxy    dyz    dz2    dxz  x2-y2    tot
    1  0.253  0.000  0.000  0.021  0.000  0.000  0.068  0.000  0.203  0.544
    2  0.028  0.000  0.000  0.186  0.000  0.000  0.008  0.000  0.023  0.245
tot    0.282  0.000  0.000  0.207  0.000  0.000  0.075  0.000  0.225  0.789
 
band     3 # energy    2.93751771 # occ.  1.00000000
 
ion      s     py     pz     px    dxy    dyz    dz2    dxz  x2-y2    tot
    1  0.000  0.000  0.000  0.000  0.000  0.000  0.153  0.000  0.051  0.204
    2  0.000  0.000  0.000  0.000  0.000  0.000  0.528  0.000  0.176  0.703
tot    0.000  0.000  0.000  0.000  0.000  0.000  0.681  0.000  0.227  0.908
 
band     4 # energy    2.93751771 # occ.  1.00000000
 
ion      s     py     pz     px    dxy    dyz    dz2    dxz  x2-y2    tot
    1  0.000  0.000  0.000  0.000  0.000  0.000  0.528  0.000  0.176  0.703
    2  0.000  0.000  0.000  0.000  0.000  0.000  0.153  0.000  0.051  0.204
tot    0.000  0.000  0.000  0.000  0.000  0.000  0.681  0.000  0.227  0.908
 
band     5 # energy    4.10788929 # occ.  1.00000000
 
ion      s     py     pz     px    dxy    dyz    dz2    dxz  x2-y2    tot
    1  0.000  0.002  0.000  0.000  0.864  0.000  0.000  0.000  0.000  0.866
    2  0.000  0.028  0.000  0.000  0.066  0.000  0.000  0.000  0.000  0.094
tot    0.000  0.031  0.000  0.000  0.930  0.000  0.000  0.000  0.000  0.960
 
band     6 # energy    4.10788929 # occ.  1.00000000
 
ion      s     py     pz     px    dxy    dyz    dz2    dxz  x2-y2    tot
    1  0.000  0.028  0.000  0.000  0.066  0.000  0.000  0.000  0.000  0.094
    2  0.000  0.002  0.000  0.000  0.864  0.000  0.000  0.000  0.000  0.866
tot    0.000  0.031  0.000  0.000  0.930  0.000  0.000  0.000  0.000  0.960
 
band     7 # energy    4.10788990 # occ.  1.00000000
 
ion      s     py     pz     px    dxy    dyz    dz2    dxz  x2-y2    tot
    1  0.000  0.000  0.002  0.000  0.000  0.000  0.000  0.883  0.000  0.885
    2  0.000  0.000  0.029  0.000  0.000  0.000  0.000  0.047  0.000  0.076
tot    0.000  0.000  0.031  0.000  0.000  0.000  0.000  0.930  0.000  0.960
 
band     8 # energy    4.10788990 # occ.  1.00000000
 
ion      s     py     pz     px    dxy    dyz    dz2    dxz  x2-y2    tot
    1  0.000  0.000  0.029  0.000  0.000  0.000  0.000  0.047  0.000  0.076
    2  0.000  0.000  0.002  0.000  0.000  0.000  0.000  0.883  0.000  0.885
tot    0.000  0.000  0.031  0.000  0.000  0.000  0.000  0.930  0.000  0.960
 
band     9 # energy    4.86038355 # occ.  1.00000000
 
ion      s     py     pz     px    dxy    dyz    dz2    dxz  x2-y2    tot
    1  0.000  0.000  0.000  0.000  0.000  0.315  0.000  0.000  0.000  0.315
    2  0.000  0.000  0.000  0.000  0.000  0.660  0.000  0.000  0.000  0.660
tot    0.000  0.000  0.000  0.000  0.000  0.975  0.000  0.000  0.000  0.975
 
band    10 # energy    4.86038355 # occ.  1.00000000
 
ion      s     py     pz     px    dxy    dyz    dz2    dxz  x2-y2    tot
    1  0.000  0.000  0.000  0.000  0.000  0.660  0.000  0.000  0.000  0.660
    2  0.000  0.000  0.000  0.000  0.000  0.315  0.000  0.000  0.000  0.315
tot    0.000  0.000  0.000  0.000  0.000  0.975  0.000  0.000  0.000  0.975
 
band    11 # energy    6.19909896 # occ.  0.00000000
 
ion      s     py     pz     px    dxy    dyz    dz2    dxz  x2-y2    tot
    1  0.020  0.000  0.000  0.073  0.000  0.000  0.023  0.000  0.068  0.184
    2  0.134  0.000  0.000  0.011  0.000  0.000  0.153  0.000  0.459  0.757
tot    0.154  0.000  0.000  0.084  0.000  0.000  0.175  0.000  0.526  0.941
 
band    12 # energy    6.19909896 # occ.  0.00000000
 
ion      s     py     pz     px    dxy    dyz    dz2    dxz  x2-y2    tot
    1  0.134  0.000  0.000  0.011  0.000  0.000  0.153  0.000  0.459  0.757
    2  0.020  0.000  0.000  0.073  0.000  0.000  0.023  0.000  0.068  0.184
tot    0.154  0.000  0.000  0.084  0.000  0.000  0.175  0.000  0.526  0.941
 
band    13 # energy   23.18644389 # occ.  0.00000000
 
ion      s     py     pz     px    dxy    dyz    dz2    dxz  x2-y2    tot
    1  0.000  0.438  0.000  0.000  0.049  0.000  0.000  0.003  0.000  0.491
    2  0.000  0.057  0.004  0.000  0.378  0.000  0.000  0.000  0.000  0.439
tot    0.000  0.495  0.004  0.000  0.427  0.000  0.000  0.004  0.000  0.930
 
band    14 # energy   23.18644468 # occ.  0.00000000
 
ion      s     py     pz     px    dxy    dyz    dz2    dxz  x2-y2    tot
    1  0.000  0.002  0.425  0.000  0.013  0.000  0.000  0.049  0.000  0.489
    2  0.000  0.016  0.057  0.000  0.002  0.000  0.000  0.366  0.000  0.441
tot    0.000  0.018  0.481  0.000  0.015  0.000  0.000  0.415  0.000  0.930
 
band    15 # energy   23.18644770 # occ.  0.00000000
 
ion      s     py     pz     px    dxy    dyz    dz2    dxz  x2-y2    tot
    1  0.000  0.040  0.070  0.000  0.146  0.000  0.000  0.191  0.000  0.446
    2  0.000  0.169  0.221  0.000  0.034  0.000  0.000  0.060  0.000  0.484
tot    0.000  0.208  0.291  0.000  0.180  0.000  0.000  0.251  0.000  0.930
 
band    16 # energy   23.18647817 # occ.  0.00000000
 
ion      s     py     pz     px    dxy    dyz    dz2    dxz  x2-y2    tot
    1  0.000  0.019  0.004  0.000  0.223  0.000  0.000  0.188  0.000  0.434
    2  0.000  0.258  0.217  0.000  0.017  0.000  0.000  0.004  0.000  0.496
tot    0.000  0.277  0.222  0.000  0.239  0.000  0.000  0.191  0.000  0.930
 

 k-point     5 :    0.16666667 0.16666667 0.00000000     weight = 0.05555556

band     1 # energy   -1.43307098 # occ.  1.00000000
 
ion      s     py     pz     px    dxy    dyz    dz2    dxz  x2-y2    tot
    1  0.328  0.019  0.000  0.019  0.005  0.000  0.001  0.000  0.000  0.372
    2  0.328  0.019  0.000  0.019  0.005  0.000  0.001  0.000  0.000  0.372
tot    0.656  0.038  0.000  0.038  0.010  0.000  0.003  0.000  0.000  0.744
 
band     2 # energy    1.47094972 # occ.  1.00000000
 
ion      s     py     pz     px    dxy    dyz    dz2    dxz  x2-y2    tot
    1  0.002  0.004  0.000  0.004  0.008  0.000  0.423  0.000  0.000  0.440
    2  0.002  0.004  0.000  0.004  0.008  0.000  0.423  0.000  0.000  0.440
tot    0.003  0.008  0.000  0.008  0.016  0.000  0.846  0.000  0.000  0.881
 
band     3 # energy    1.57591579 # occ.  1.00000000
 
ion      s     py     pz     px    dxy    dyz    dz2    dxz  x2-y2    tot
    1  0.000  0.011  0.000  0.011  0.000  0.000  0.000  0.000  0.417  0.439
    2  0.000  0.011  0.000  0.011  0.000  0.000  0.000  0.000  0.417  0.439
tot    0.000  0.022  0.000  0.022  0.000  0.000  0.000  0.000  0.834  0.878
 
band     4 # energy    3.36669148 # occ.  1.00000000
 
ion      s     py     pz     px    dxy    dyz    dz2    dxz  x2-y2    tot
    1  0.000  0.000  0.000  0.000  0.000  0.243  0.000  0.243  0.000  0.486
    2  0.000  0.000  0.000  0.000  0.000  0.243  0.000  0.243  0.000  0.486
tot    0.000  0.000  0.000  0.000  0.000  0.486  0.000  0.486  0.000  0.973
 
band     5 # energy    3.57983790 # occ.  1.00000000
 
ion      s     py     pz     px    dxy    dyz    dz2    dxz  x2-y2    tot
    1  0.002  0.004  0.000  0.004  0.431  0.000  0.041  0.000  0.000  0.481
    2  0.002  0.004  0.000  0.004  0.431  0.000  0.041  0.000  0.000  0.481
tot    0.003  0.007  0.000  0.007  0.862  0.000  0.082  0.000  0.000  0.962
 
band     6 # energy    4.25633490 # occ.  1.00000000
 
ion      s     py     pz     px    dxy    dyz    dz2    dxz  x2-y2    tot
    1  0.000  0.000  0.003  0.000  0.000  0.243  0.000  0.243  0.000  0.489
    2  0.000  0.000  0.003  0.000  0.000  0.243  0.000  0.243  0.000  0.489
tot    0.000  0.000  0.006  0.000  0.000  0.486  0.000  0.486  0.000  0.978
 
band     7 # energy    4.69009930 # occ.  1.00000000
 
ion      s     py     pz     px    dxy    dyz    dz2    dxz  x2-y2    tot
    1  0.000  0.000  0.000  0.000  0.046  0.000  0.437  0.000  0.000  0.483
    2  0.000  0.000  0.000  0.000  0.046  0.000  0.437  0.000  0.000  0.483
tot    0.001  0.000  0.000  0.000  0.092  0.000  0.874  0.000  0.000  0.967
 
band     8 # energy    4.90517746 # occ.  1.00000000
 
ion      s     py     pz     px    dxy    dyz    dz2    dxz  x2-y2    tot
    1  0.000  0.000  0.000  0.000  0.000  0.000  0.000  0.000  0.486  0.486
    2  0.000  0.000  0.000  0.000  0.000  0.000  0.000  0.000  0.486  0.486
tot    0.000  0.000  0.000  0.000  0.000  0.000  0.000  0.000  0.972  0.972
 
band     9 # energy    4.97121527 # occ.  1.00000000
 
ion      s     py     pz     px    dxy    dyz    dz2    dxz  x2-y2    tot
    1  0.000  0.000  0.013  0.000  0.000  0.235  0.000  0.235  0.000  0.483
    2  0.000  0.000  0.013  0.000  0.000  0.235  0.000  0.235  0.000  0.483
tot    0.000  0.000  0.026  0.000  0.000  0.470  0.000  0.470  0.000  0.966
 
band    10 # energy    5.25565812 # occ.  1.00000000
 
ion      s     py     pz     px    dxy    dyz    dz2    dxz  x2-y2    tot
    1  0.007  0.007  0.000  0.007  0.448  0.000  0.013  0.000  0.000  0.482
    2  0.007  0.007  0.000  0.007  0.448  0.000  0.013  0.000  0.000  0.482
tot    0.013  0.014  0.000  0.014  0.896  0.000  0.027  0.000  0.000  0.964
 
band    11 # energy    6.18553192 # occ.  0.00000001
 
ion      s     py     pz     px    dxy    dyz    dz2    dxz  x2-y2    tot
    1  0.000  0.000  0.000  0.000  0.000  0.247  0.000  0.247  0.000  0.495
    2  0.000  0.000  0.000  0.000  0.000  0.247  0.000  0.247  0.000  0.495
tot    0.000  0.000  0.000  0.000  0.000  0.495  0.000  0.495  0.000  0.989
 
band    12 # energy   13.13244726 # occ.  0.00000000
 
ion      s     py     pz     px    dxy    dyz    dz2    dxz  x2-y2    tot
    1  0.000  0.153  0.000  0.153  0.000  0.000  0.000  0.000  0.108  0.415
    2  0.000  0.153  0.000  0.153  0.000  0.000  0.000  0.000  0.108  0.415
tot    0.000  0.306  0.000  0.306  0.000  0.000  0.000  0.000  0.217  0.829
 
band    13 # energy   14.56328273 # occ.  0.00000000
 
ion      s     py     pz     px    dxy    dyz    dz2    dxz  x2-y2    tot
    1  0.119  0.092  0.000  0.092  0.067  0.000  0.046  0.000  0.000  0.417
    2  0.119  0.092  0.000  0.092  0.067  0.000  0.046  0.000  0.000  0.417
tot    0.239  0.184  0.000  0.184  0.135  0.000  0.093  0.000  0.000  0.834
 
band    14 # energy   17.91937277 # occ.  0.00000000
 
ion      s     py     pz     px    dxy    dyz    dz2    dxz  x2-y2    tot
    1  0.000  0.000  0.342  0.000  0.000  0.031  0.000  0.031  0.000  0.404
    2  0.000  0.000  0.342  0.000  0.000  0.031  0.000  0.031  0.000  0.404
tot    0.000  0.000  0.684  0.000  0.000  0.062  0.000  0.062  0.000  0.809
 
band    15 # energy   22.73967521 # occ.  0.00000000
 
ion      s     py     pz     px    dxy    dyz    dz2    dxz  x2-y2    tot
    1  0.047  0.000  0.000  0.000  0.003  0.000  0.374  0.000  0.000  0.424
    2  0.047  0.000  0.000  0.000  0.003  0.000  0.374  0.000  0.000  0.424
tot    0.095  0.000  0.000  0.000  0.006  0.000  0.747  0.000  0.000  0.848
 
band    16 # energy   25.60937645 # occ.  0.00000000
 
ion      s     py     pz     px    dxy    dyz    dz2    dxz  x2-y2    tot
    1  0.000  0.025  0.000  0.029  0.000  0.000  0.000  0.000  0.350  0.403
    2  0.000  0.029  0.000  0.025  0.000  0.000  0.000  0.000  0.349  0.403
tot    0.000  0.053  0.000  0.053  0.000  0.000  0.000  0.000  0.699  0.807
 

 k-point     6 :    0.33333333 0.16666667 0.00000000     weight = 0.11111111

band     1 # energy   -0.03766137 # occ.  1.00000000
 
ion      s     py     pz     px    dxy    dyz    dz2    dxz  x2-y2    tot
    1  0.255  0.012  0.000  0.061  0.029  0.000  0.014  0.000  0.008  0.380
    2  0.255  0.012  0.000  0.061  0.029  0.000  0.014  0.000  0.008  0.380
tot    0.510  0.025  0.000  0.123  0.058  0.000  0.028  0.000  0.017  0.760
 
band     2 # energy    1.76311816 # occ.  1.00000000
 
ion      s     py     pz     px    dxy    dyz    dz2    dxz  x2-y2    tot
    1  0.021  0.000  0.000  0.032  0.046  0.000  0.302  0.000  0.035  0.436
    2  0.021  0.000  0.000  0.032  0.046  0.000  0.302  0.000  0.035  0.436
tot    0.043  0.001  0.000  0.064  0.092  0.000  0.603  0.000  0.070  0.872