<?xml version="1.0" encoding="ISO-8859-1"?>
<modeling>
 <generator>
  <i name="program" type="string">vasp </i>
  <i name="version" type="string">6.5.1  </i>
  <i name="subversion" type="string">10Mar25 (build May 31 2025 23:02:25) complex                          parallel </i>
  <i name="platform" type="string">LinuxIFC </i>
  <i name="date" type="string">2026 01 18 </i>
  <i name="time" type="string">23:08:27 </i>
 </generator>
 <incar>
  <i type="string" name="PREC">accurate</i>
  <i type="string" name="ALGO">fast</i>
  <i type="int" name="ISPIN">     2</i>
  <i type="int" name="IBRION">     2</i>
  <i name="EDIFF">      0.00001000</i>
  <i name="EDIFFG">     -0.03000000</i>
  <i type="int" name="NSW">   100</i>
  <i type="int" name="ISIF">     3</i>
  <i name="ENCUT">    520.00000000</i>
  <v name="MAGMOM">      4.00000000      4.00000000</v>
  <i type="string" name="EFERMI">midgap</i>
  <i type="int" name="ISMEAR">     0</i>
  <i name="SIGMA">      0.05000000</i>
  <i name="KSPACING">      0.40000000</i>
  <i type="int" name="LORBIT">    11</i>
  <i type="logical" name="LASPH"> T  </i>
  <i type="logical" name="GGA_COMPAT"> F  </i>
  <i type="string" name="GGA">PE</i>
  <i type="int" name="IVDW">     0</i>
 </incar>
 <primitive_cell>
  <structure name="primitive_cell" >
   <crystal>
    <varray name="basis" >
     <v>       1.43151775       1.43151775      -1.43151775 </v>
     <v>      -1.43151775       1.43151775       1.43151775 </v>
     <v>       1.43151775      -1.43151775       1.43151775 </v>
    </varray>
    <i name="volume">     11.73411131 </i>
    <varray name="rec_basis" >
     <v>       0.34927964       0.34927964      -0.00000000 </v>
     <v>      -0.00000000       0.34927964       0.34927964 </v>
     <v>       0.34927964      -0.00000000       0.34927964 </v>
    </varray>
   </crystal>
   <varray name="positions" >
    <v>       0.00000000       0.00000000       0.00000000 </v>
   </varray>
  </structure>
  <varray name="primitive_index" >
   <v type="int" >        1 </v>
  </varray>
 </primitive_cell>
 <kpoints>
  <generation param="Gamma">
   <v type="int" name="divisions">       6        6        6 </v>
   <v name="usershift">      0.00000000       0.00000000       0.00000000 </v>
   <v name="genvec1">      0.16666667       0.00000000       0.00000000 </v>
   <v name="genvec2">      0.00000000       0.16666667       0.00000000 </v>
   <v name="genvec3">      0.00000000       0.00000000       0.16666667 </v>
   <v name="shift">      0.00000000       0.00000000       0.00000000 </v>
  </generation>
  <varray name="kpointlist" >
   <v>       0.00000000       0.00000000       0.00000000 </v>
   <v>       0.16666667       0.00000000       0.00000000 </v>
   <v>       0.33333333       0.00000000       0.00000000 </v>
   <v>       0.50000000       0.00000000       0.00000000 </v>
   <v>       0.16666667       0.16666667       0.00000000 </v>
   <v>       0.33333333       0.16666667       0.00000000 </v>
   <v>       0.50000000       0.16666667       0.00000000 </v>
   <v>       0.33333333       0.33333333       0.00000000 </v>
   <v>       0.50000000       0.33333333       0.00000000 </v>
   <v>       0.50000000       0.50000000       0.00000000 </v>
   <v>       0.16666667       0.16666667       0.16666667 </v>
   <v>       0.33333333       0.16666667       0.16666667 </v>
   <v>       0.50000000       0.16666667       0.16666667 </v>
   <v>       0.33333333       0.33333333       0.16666667 </v>
   <v>       0.50000000       0.33333333       0.16666667 </v>
   <v>       0.50000000       0.50000000       0.16666667 </v>
   <v>       0.33333333       0.33333333       0.33333333 </v>
   <v>       0.50000000       0.33333333       0.33333333 </v>
   <v>       0.50000000       0.50000000       0.33333333 </v>
   <v>       0.50000000       0.50000000       0.50000000 </v>
  </varray>
  <varray name="weights" >
   <v>       0.00462963 </v>
   <v>       0.02777778 </v>
   <v>       0.02777778 </v>
   <v>       0.01388889 </v>
   <v>       0.05555556 </v>
   <v>       0.11111111 </v>
   <v>       0.05555556 </v>
   <v>       0.05555556 </v>
   <v>       0.05555556 </v>
   <v>       0.01388889 </v>
   <v>       0.03703704 </v>
   <v>       0.11111111 </v>
   <v>       0.05555556 </v>
   <v>       0.11111111 </v>
   <v>       0.11111111 </v>
   <v>       0.02777778 </v>
   <v>       0.03703704 </v>
   <v>       0.05555556 </v>
   <v>       0.02777778 </v>
   <v>       0.00462963 </v>
  </varray>
 </kpoints>
 <parameters>
  <separator name="general" >
   <i type="string" name="SYSTEM">unknown system</i>
   <i type="logical" name="LCOMPAT"> F  </i>
  </separator>
  <separator name="electronic" >
   <i type="string" name="PREC">accura</i>
   <i name="ENMAX">    520.00000000</i>
   <i name="ENAUG">    511.36800000</i>
   <i name="EDIFF">      0.00001000</i>
   <i type="int" name="IALGO">    68</i>
   <i type="int" name="IWAVPR">    11</i>
   <i type="int" name="NBANDS">    16</i>
   <i type="int" name="NBANDSLOW">    -1</i>
   <i type="int" name="NBANDSHIGH">    -1</i>
   <i name="NELECT">     16.00000000</i>
   <i type="int" name="TURBO">     0</i>
   <i type="int" name="IRESTART">     0</i>
   <i type="int" name="NREBOOT">     0</i>
   <i type="int" name="NMIN">     0</i>
   <i name="EREF">      0.00000000</i>
   <separator name="electronic smearing" >
    <i type="int" name="ISMEAR">     0</i>
    <i name="SIGMA">      0.05000000</i>
    <i name="KSPACING">      0.40000000</i>
    <i type="logical" name="KGAMMA"> T  </i>
    <i type="logical" name="KBLOWUP"> T  </i>
   </separator>
   <separator name="electronic projectors" >
    <i type="logical" name="LREAL"> F  </i>
    <v name="ROPT">      0.00000000</v>
    <i type="int" name="LMAXPAW">  -100</i>
    <i type="int" name="LMAXMIX">     2</i>
    <i type="logical" name="NLSPLINE"> F  </i>
   </separator>
   <separator name="electronic startup" >
    <i type="int" name="ISTART">     1</i>
    <i type="int" name="ICHARG">     0</i>
    <i type="int" name="INIWAV">     1</i>
   </separator>
   <separator name="electronic spin" >
    <i type="int" name="ISPIN">     2</i>
    <i type="logical" name="LNONCOLLINEAR"> F  </i>
    <v name="MAGMOM">      4.00000000      4.00000000</v>
    <i name="NUPDOWN">     -1.00000000</i>
    <i type="logical" name="LSORBIT"> F  </i>
    <v name="SAXIS">      0.00000000      0.00000000      1.00000000</v>
    <i type="logical" name="LSPIRAL"> F  </i>
    <v name="QSPIRAL">      0.00000000      0.00000000      0.00000000</v>
    <i type="logical" name="LZEROZ"> F  </i>
   </separator>
   <separator name="electronic exchange-correlation" >
    <i type="logical" name="LASPH"> T  </i>
   </separator>
   <separator name="electronic convergence" >
    <i type="int" name="NELM">    60</i>
    <i type="int" name="NELMDL">     0</i>
    <i type="int" name="NELMIN">     2</i>
    <i name="ENINI">    520.00000000</i>
    <separator name="electronic convergence detail" >
     <i type="logical" name="LDIAG"> T  </i>
     <i type="logical" name="LSUBROT"> F  </i>
     <i type="logical" name="LROBUST"> F  </i>
     <i type="int" name="ISEARCH">     0</i>
     <i name="WEIMIN">      0.00100000</i>
     <i name="EBREAK">      0.00000016</i>
     <i name="DEPER">      0.30000000</i>
     <i type="int" name="NRMM">     4</i>
     <i name="TIME">      0.40000000</i>
    </separator>
   </separator>
   <separator name="electronic mixer" >
    <i name="AMIX">      0.40000000</i>
    <i name="BMIX">      1.00000000</i>
    <i name="AMIN">      0.10000000</i>
    <i name="AMIX_MAG">      1.60000000</i>
    <i name="BMIX_MAG">      1.00000000</i>
    <separator name="electronic mixer details" >
     <i type="int" name="IMIX">     4</i>
     <i type="logical" name="MIXFIRST"> F  </i>
     <i type="int" name="MAXMIX">   -45</i>
     <i name="WC">    100.00000000</i>
     <i type="int" name="INIMIX">     1</i>
     <i type="int" name="MIXPRE">     1</i>
     <i type="int" name="MREMOVE">     5</i>
    </separator>
   </separator>
   <separator name="electronic dipolcorrection" >
    <i type="logical" name="LDIPOL"> F  </i>
    <i type="logical" name="LMONO"> F  </i>
    <i type="int" name="IDIPOL">     0</i>
    <i name="EPSILON">      1.00000000</i>
    <v name="DIPOL">   -100.00000000   -100.00000000   -100.00000000</v>
    <i name="EFIELD">      0.00000000</i>
    <i type="logical" name="LVACPOTAV"> F  </i>
   </separator>
  </separator>
  <separator name="grids" >
   <i type="int" name="NGX">    24</i>
   <i type="int" name="NGY">    24</i>
   <i type="int" name="NGZ">    24</i>
   <i type="int" name="NGXF">    48</i>
   <i type="int" name="NGYF">    48</i>
   <i type="int" name="NGZF">    48</i>
   <i type="logical" name="ADDGRID"> F  </i>
  </separator>
  <separator name="ionic" >
   <i type="int" name="NSW">   100</i>
   <i type="int" name="IBRION">     2</i>
   <i type="int" name="MDALGO">     0</i>
   <i type="int" name="ISIF">     3</i>
   <i name="PSTRESS">      0.00000000</i>
   <i name="EDIFFG">     -0.03000000</i>
   <i type="int" name="NFREE">     1</i>
   <i name="POTIM">      0.50000000</i>
   <i name="SMASS">     -3.00000000</i>
   <i name="SCALEE">      1.00000000</i>
  </separator>
  <separator name="ionic md" >
   <i name="TEBEG">      0.00010000</i>
   <i name="TEEND">      0.00010000</i>
   <i type="int" name="NBLOCK">     1</i>
   <i type="int" name="KBLOCK">   100</i>
   <i type="int" name="NPACO">   256</i>
   <i name="APACO">     10.00000000</i>
  </separator>
  <separator name="symmetry" >
   <i type="int" name="ISYM">     2</i>
   <i name="SYMPREC">      0.00001000</i>
  </separator>
  <separator name="dos" >
   <i type="int" name="LORBIT">    11</i>
   <v name="RWIGS">     -1.00000000</v>
   <i type="int" name="NEDOS">   301</i>
   <i name="EMIN">     10.00000000</i>
   <i name="EMAX">    -10.00000000</i>
   <i name="EFERMI">      0.00000000</i>
  </separator>
  <separator name="writing" >
   <i type="int" name="NWRITE">     2</i>
   <i type="logical" name="LWAVE"> T  </i>
   <i type="logical" name="LDOWNSAMPLE"> F  </i>
   <i type="logical" name="LCHARG"> T  </i>
   <i type="logical" name="LPARD"> F  </i>
   <i type="logical" name="LVTOT"> F  </i>
   <i type="logical" name="LVHAR"> F  </i>
   <i type="logical" name="LELF"> F  </i>
   <i type="logical" name="LOPTICS"> F  </i>
   <v name="STM">      0.00000000      0.00000000      0.00000000      0.00000000      0.00000000      0.00000000      0.00000000</v>
  </separator>
  <separator name="performance" >
   <i type="int" name="NPAR">     4</i>
   <i type="int" name="NSIM">     4</i>
   <i type="int" name="NBLK">    -1</i>
   <i type="logical" name="LPLANE"> T  </i>
   <i type="logical" name="LSCALAPACK"> T  </i>
   <i type="logical" name="LSCAAWARE"> F  </i>
   <i type="logical" name="LSCALU"> F  </i>
   <i type="logical" name="LASYNC"> F  </i>
   <i type="logical" name="LORBITALREAL"> F  </i>
  </separator>
  <separator name="miscellaneous" >
   <i type="int" name="IDIOT">     3</i>
   <i type="int" name="PHON_NSTRUCT">    -1</i>
   <i type="logical" name="LMUSIC"> F  </i>
   <v name="POMASS">     55.84700000</v>
   <v name="DARWINR">      0.00000000</v>
   <v name="DARWINV">      1.00000000</v>
   <i type="logical" name="LCORR"> T  </i>
  </separator>
  <i type="logical" name="GGA_COMPAT"> F  </i>
  <i type="logical" name="LBERRY"> F  </i>
  <i type="int" name="ICORELEVEL">     0</i>
  <i type="logical" name="LDAU"> F  </i>
  <i type="int" name="I_CONSTRAINED_M">     0</i>
  <separator name="electronic exchange-correlation" >
   <i type="string" name="GGA    ">PE</i>
   <i type="string" name="XC_C">1</i>
   <i type="int" name="VOSKOWN">     0</i>
   <i type="logical" name="LHFCALC"> F  </i>
   <i type="string" name="PRECFOCK"></i>
   <i type="logical" name="LSYMGRAD"> F  </i>
   <i type="logical" name="LHFONE"> F  </i>
   <i type="logical" name="LRHFCALC"> F  </i>
   <i type="logical" name="LTHOMAS"> F  </i>
   <i type="logical" name="LMODELHF"> F  </i>
   <i type="logical" name="LFOCKACE"> F  </i>
   <i name="ENCUT4O">     -1.00000000</i>
   <i type="int" name="EXXOEP">     0</i>
   <i type="int" name="FOURORBIT">     0</i>
   <i name="AEXX">      0.00000000</i>
   <i name="HFALPHA">      0.00000000</i>
   <i name="MCALPHA">      0.00000000</i>
   <i name="ALDAX">      1.00000000</i>
   <i name="AGGAX">      1.00000000</i>
   <i name="AMGGAX">      1.00000000</i>
   <i name="ALDAC">      1.00000000</i>
   <i name="AGGAC">      1.00000000</i>
   <i name="AMGGAC">      1.00000000</i>
   <i type="int" name="NKREDX">     1</i>
   <i type="int" name="NKREDY">     1</i>
   <i type="int" name="NKREDZ">     1</i>
   <i type="logical" name="SHIFTRED"> F  </i>
   <i type="logical" name="ODDONLY"> F  </i>
   <i type="logical" name="EVENONLY"> F  </i>
   <i type="int" name="LMAXFOCK">     0</i>
   <i type="int" name="NMAXFOCKAE">     0</i>
   <i type="logical" name="LFOCKAEDFT"> F  </i>
   <i name="HFSCREEN">      0.00000000</i>
   <i name="HFSCREENC">      0.00000000</i>
   <i type="int" name="NBANDSGWLOW">     0</i>
  </separator>
  <separator name="vdW DFT" >
   <i type="logical" name="LUSE_VDW"> F  </i>
   <i type="int" name="IVDW_NL">    -1</i>
   <i type="logical" name="LSPIN_VDW"> F  </i>
   <i name="ZAB_VDW">     -0.84910000</i>
   <i name="GAMMA_VDW">      1.39626340</i>
   <i name="ALPHA_VDW">      0.00000000</i>
   <i name="PARAM1">      0.12340000</i>
   <i name="PARAM2">      1.00000000</i>
   <i name="BPARAM">      6.30000000</i>
   <i name="CPARAM">      0.00930000</i>
  </separator>
  <separator name="model GW" >
   <i type="int" name="MODEL_GW">     0</i>
   <i name="MODEL_EPS0">      7.04046678</i>
   <i name="MODEL_ALPHA">      1.00000000</i>
  </separator>
  <separator name="linear response parameters" >
   <i type="logical" name="LEPSILON"> F  </i>
   <i type="logical" name="LRPA"> F  </i>
   <i type="logical" name="LNABLA"> F  </i>
   <i type="logical" name="LVEL"> F  </i>
   <i name="CSHIFT">      0.10000000</i>
   <i name="OMEGAMAX">     -1.00000000</i>
   <i name="DEG_THRESHOLD">      0.00200000</i>
   <i name="RTIME">     -0.10000000</i>
   <i name="WPLASMAI">      0.00000000</i>
   <v name="DFIELD">      0.00000000      0.00000000      0.00000000</v>
   <v name="WPLASMA">      0.00000000      0.00000000      0.00000000      0.00000000      0.00000000      0.00000000      0.00000000      0.00000000      0.00000000</v>
  </separator>
  <separator name="orbital magnetization" >
   <i type="logical" name="NUCIND"> F  </i>
   <v name="MAGPOS">      0.00000000      0.00000000      0.00000000</v>
   <i type="logical" name="LNICSALL"> T  </i>
   <i type="logical" name="ORBITALMAG"> F  </i>
   <i type="logical" name="LMAGBLOCH"> F  </i>
   <i type="logical" name="LCHIMAG"> F  </i>
   <i type="logical" name="LGAUGE"> T  </i>
   <i type="int" name="MAGATOM">     0</i>
   <v name="MAGDIPOL">      0.00000000      0.00000000      0.00000000</v>
   <v name="AVECCONST">      0.00000000      0.00000000      0.00000000</v>
  </separator>
  <separator name="response functions" >
   <i type="logical" name="LALL_IN_ONE"> F  </i>
   <i type="int" name="IALL_IN_ONE">    -1</i>
   <i type="int" name="NBANDS_WAVE">    -1</i>
   <i type="logical" name="LFINITE_TEMPERATURE"> F  </i>
   <i type="logical" name="LADDER"> F  </i>
   <i type="logical" name="LRPAFORCE"> F  </i>
   <i type="logical" name="LFXC"> F  </i>
   <i type="logical" name="LHARTREE"> T  </i>
   <i type="int" name="IBSE">     2</i>
   <v type="int" name="KPOINT">    -1     0     0     0</v>
   <i type="logical" name="LTCTC"> F  </i>
   <i type="logical" name="LTCTE"> F  </i>
   <i type="logical" name="LTETE"> F  </i>
   <i type="logical" name="LTRIPLET"> F  </i>
   <i type="logical" name="LFXCEPS"> F  </i>
   <i type="logical" name="LFXHEG"> F  </i>
   <i type="int" name="NATURALO">     2</i>
   <i type="logical" name="LHOLEGF"> F  </i>
   <i type="logical" name="L2ORDER"> F  </i>
   <i type="logical" name="LDMP1"> F  </i>
   <i type="logical" name="LMP2LT"> F  </i>
   <i type="logical" name="LSMP2LT"> F  </i>
   <i type="logical" name="LGWLF"> F  </i>
   <i name="ENCUTGW">     -1.60000002</i>
   <i name="ENCUTGWSOFT">     -1.60000002</i>
   <i name="ENCUTLF">     -1.00000000</i>
   <i type="logical" name="ESF_SPLINES"> F  </i>
   <i name="ESF_CONV">      0.01000000</i>
   <i type="int" name="ESF_NINTER">    15</i>
   <i type="int" name="LMAXMP2">    -1</i>
   <i name="SCISSOR">      0.00000000</i>
   <i type="int" name="NOMEGA">     0</i>
   <i type="int" name="NOMEGAR">     0</i>
   <i type="int" name="NBANDSGW">    -1</i>
   <i type="int" name="NBANDSO">    -1</i>
   <i type="int" name="NBANDSV">    -1</i>
   <i type="int" name="NELMGW">     1</i>
   <i type="int" name="NELMHF">     1</i>
   <i type="int" name="DIM">     3</i>
   <i type="int" name="IESPILON">     4</i>
   <i type="int" name="ANTIRES">     0</i>
   <i name="OMEGAMAX">    -30.00000000</i>
   <i name="OMEGAMIN">    -30.00000000</i>
   <i name="OMEGATL">   -200.00000000</i>
   <i type="int" name="OMEGAGRID">     0</i>
   <i name="CSHIFT">     -0.10000000</i>
   <i type="logical" name="LSELFENERGY"> F  </i>
   <i type="logical" name="LSPECTRAL"> F  </i>
   <i type="logical" name="LSPECTRALGW"> F  </i>
   <i type="logical" name="LSINGLES"> F  </i>
   <i type="logical" name="LFERMIGW"> F  </i>
   <i type="logical" name="ODDONLYGW"> F  </i>
   <i type="logical" name="EVENONLYGW"> F  </i>
   <i type="int" name="NKREDLFX">     1</i>
   <i type="int" name="NKREDLFY">     1</i>
   <i type="int" name="NKREDLFZ">     1</i>
   <i type="int" name="MAXMEM">  2800</i>
   <i type="int" name="TELESCOPE">     0</i>
   <i type="int" name="NTAUPAR">    -1</i>
   <i type="int" name="NOMEGAPAR">    -1</i>
   <i name="DAMP_NEWTON">      0.80000001</i>
   <i name="LAMBDA">      1.00000000</i>
  </separator>
  <separator name="External order field" >
   <i name="OFIELD_KAPPA">      0.00000000</i>
   <v name="OFIELD_K">      0.00000000      0.00000000      0.00000000</v>
   <i name="OFIELD_Q6_NEAR">      0.00000000</i>
   <i name="OFIELD_Q6_FAR">      0.00000000</i>
   <i name="OFIELD_A">      0.00000000</i>
  </separator>
  <separator name="optional k-points parameters" >
   <i type="int" name="KPOINTS_OPT_MODE">     1</i>
   <i type="logical" name="LKPOINTS_OPT"> F  </i>
  </separator>
 </parameters>
 <atominfo>
  <atoms>       2 </atoms>
  <types>       1 </types>
  <array name="atoms" >
   <dimension dim="1">ion</dimension>
   <field type="string">element</field>
   <field type="int">atomtype</field>
   <set>
    <rc><c>Fe</c><c>   1</c></rc>
    <rc><c>Fe</c><c>   1</c></rc>
   </set>
  </array>
  <array name="atomtypes" >
   <dimension dim="1">type</dimension>
   <field type="int">atomspertype</field>
   <field type="string">element</field>
   <field>mass</field>
   <field>valence</field>
   <field type="string">pseudopotential</field>
   <set>
    <rc><c>   2</c><c>Fe</c><c>     55.84700000</c><c>      8.00000000</c><c>  PAW_PBE Fe 06Sep2000                  </c></rc>
   </set>
  </array>
 </atominfo>
 <structure name="initialpos" >
  <crystal>
   <varray name="basis" >
    <v>       2.86303550       0.00000000       0.00000000 </v>
    <v>       0.00000000       2.86303550       0.00000000 </v>
    <v>       0.00000000       0.00000000       2.86303550 </v>
   </varray>
   <i name="volume">     23.46822261 </i>
   <varray name="rec_basis" >
    <v>       0.34927964       0.00000000       0.00000000 </v>
    <v>       0.00000000       0.34927964       0.00000000 </v>
    <v>       0.00000000       0.00000000       0.34927964 </v>
   </varray>
  </crystal>
  <varray name="positions" >
   <v>       0.00000000       0.00000000       0.00000000 </v>
   <v>       0.50000000       0.50000000       0.50000000 </v>
  </varray>
 </structure>
 <calculation>
  <scstep>
   <time name="dav">    0.13    0.13</time>
   <time name="total">    0.32    0.32</time>
   <energy>
    <i name="alphaZ">    117.79976207 </i>
    <i name="ewald">  -1171.43779554 </i>
    <i name="hartreedc">   -179.89192967 </i>
    <i name="XCdc">      7.47210229 </i>
    <i name="pawpsdc">   1372.61624536 </i>
    <i name="pawaedc">  -1384.91365658 </i>
    <i name="eentropy">     -0.00384541 </i>
    <i name="bandstr">     31.81978088 </i>
    <i name="atom">   1188.62536141 </i>
    <i name="e_fr_energy">    -17.91397519 </i>
    <i name="e_wo_entrp">    -17.91012978 </i>
    <i name="e_0_energy">    -17.91205249 </i>
   </energy>
  </scstep>
  <scstep>
   <time name="diag">    0.03    0.03</time>
   <time name="diis">    0.08    0.08</time>
   <time name="orth">    0.00    0.00</time>
   <time name="total">    0.30    0.31</time>
   <energy>
    <i name="e_fr_energy">    -16.58037967 </i>
    <i name="e_wo_entrp">    -16.57718672 </i>
    <i name="e_0_energy">    -16.57878319 </i>
   </energy>
  </scstep>
  <scstep>
   <time name="diag">    0.03    0.03</time>
   <time name="diis">    0.08    0.08</time>
   <time name="orth">    0.00    0.00</time>
   <time name="total">    0.30    0.30</time>
   <energy>
    <i name="e_fr_energy">    -16.47002201 </i>
    <i name="e_wo_entrp">    -16.46681138 </i>
    <i name="e_0_energy">    -16.46841669 </i>
   </energy>
  </scstep>
  <scstep>
   <time name="diag">    0.03    0.03</time>
   <time name="diis">    0.08    0.08</time>
   <time name="orth">    0.00    0.00</time>
   <time name="total">    0.30    0.30</time>
   <energy>
    <i name="e_fr_energy">    -16.47165713 </i>
    <i name="e_wo_entrp">    -16.46765054 </i>
    <i name="e_0_energy">    -16.46965384 </i>
   </energy>
  </scstep>
  <scstep>
   <time name="diag">    0.03    0.03</time>
   <time name="diis">    0.08    0.08</time>
   <time name="orth">    0.00    0.00</time>
   <time name="total">    0.30    0.30</time>
   <energy>
    <i name="e_fr_energy">    -16.47193151 </i>
    <i name="e_wo_entrp">    -16.46775809 </i>
    <i name="e_0_energy">    -16.46984480 </i>
   </energy>
  </scstep>
  <scstep>
   <time name="diag">    0.03    0.03</time>
   <time name="diis">    0.09    0.09</time>
   <time name="orth">    0.00    0.00</time>
   <time name="total">    0.31    0.31</time>
   <energy>
    <i name="e_fr_energy">    -16.47287986 </i>
    <i name="e_wo_entrp">    -16.46840918 </i>
    <i name="e_0_energy">    -16.47064452 </i>
   </energy>
  </scstep>
  <scstep>
   <time name="diag">    0.03    0.03</time>
   <time name="diis">    0.08    0.08</time>
   <time name="orth">    0.00    0.00</time>
   <time name="total">    0.30    0.30</time>
   <energy>
    <i name="e_fr_energy">    -16.47293167 </i>
    <i name="e_wo_entrp">    -16.46845816 </i>
    <i name="e_0_energy">    -16.47069491 </i>
   </energy>
  </scstep>
  <scstep>
   <time name="diag">    0.03    0.03</time>
   <time name="diis">    0.08    0.08</time>
   <time name="orth">    0.00    0.00</time>
   <time name="total">    0.30    0.30</time>
   <energy>
    <i name="e_fr_energy">    -16.47270397 </i>
    <i name="e_wo_entrp">    -16.46823151 </i>
    <i name="e_0_energy">    -16.47046774 </i>
   </energy>
  </scstep>
  <scstep>
   <time name="diag">    0.03    0.03</time>
   <time name="diis">    0.10    0.10</time>
   <time name="orth">    0.00    0.00</time>
   <time name="total">    0.32    0.32</time>
   <energy>
    <i name="e_fr_energy">    -16.47214775 </i>
    <i name="e_wo_entrp">    -16.46774536 </i>
    <i name="e_0_energy">    -16.46994655 </i>
   </energy>
  </scstep>
  <scstep>
   <time name="diag">    0.03    0.03</time>
   <time name="diis">    0.08    0.08</time>
   <time name="orth">    0.00    0.00</time>
   <time name="total">    0.30    0.30</time>
   <energy>
    <i name="e_fr_energy">    -16.47208618 </i>
    <i name="e_wo_entrp">    -16.46775686 </i>
    <i name="e_0_energy">    -16.46992152 </i>
   </energy>
  </scstep>
  <scstep>
   <time name="diag">    0.03    0.03</time>
   <time name="diis">    0.07    0.07</time>
   <time name="orth">    0.00    0.00</time>
   <time name="total">    0.29    0.29</time>
   <energy>
    <i name="e_fr_energy">    -16.47203068 </i>
    <i name="e_wo_entrp">    -16.46781317 </i>
    <i name="e_0_energy">    -16.46992192 </i>
   </energy>
  </scstep>
  <scstep>
   <time name="diag">    0.03    0.03</time>
   <time name="diis">    0.07    0.07</time>
   <time name="orth">    0.00    0.00</time>
   <time name="total">    0.29    0.29</time>
   <energy>
    <i name="e_fr_energy">    -16.47196813 </i>
    <i name="e_wo_entrp">    -16.46791447 </i>
    <i name="e_0_energy">    -16.46994130 </i>
   </energy>
  </scstep>
  <scstep>
   <time name="diag">    0.03    0.03</time>
   <time name="diis">    0.06    0.06</time>
   <time name="orth">    0.00    0.00</time>
   <time name="total">    0.28    0.28</time>
   <energy>
    <i name="e_fr_energy">    -16.47192313 </i>
    <i name="e_wo_entrp">    -16.46801612 </i>
    <i name="e_0_energy">    -16.46996962 </i>
   </energy>
  </scstep>
  <scstep>
   <time name="diag">    0.03    0.03</time>
   <time name="diis">    0.06    0.06</time>
   <time name="orth">    0.00    0.00</time>
   <time name="total">    0.28    0.28</time>
   <energy>
    <i name="e_fr_energy">    -16.47200994 </i>
    <i name="e_wo_entrp">    -16.46791411 </i>
    <i name="e_0_energy">    -16.46996202 </i>
   </energy>
  </scstep>
  <scstep>
   <time name="diag">    0.03    0.03</time>
   <time name="diis">    0.06    0.06</time>
   <time name="orth">    0.00    0.00</time>
   <time name="total">    0.28    0.28</time>
   <energy>
    <i name="e_fr_energy">    -16.47205689 </i>
    <i name="e_wo_entrp">    -16.46783737 </i>
    <i name="e_0_energy">    -16.46994713 </i>
   </energy>
  </scstep>
  <scstep>
   <time name="diag">    0.03    0.03</time>
   <time name="diis">    0.10    0.10</time>
   <time name="orth">    0.00    0.00</time>
   <time name="total">    0.32    0.32</time>
   <energy>
    <i name="e_fr_energy">    -16.47237701 </i>
    <i name="e_wo_entrp">    -16.46797385 </i>
    <i name="e_0_energy">    -16.47017543 </i>
   </energy>
  </scstep>
  <scstep>
   <time name="diag">    0.03    0.03</time>
   <time name="diis">    0.09    0.09</time>
   <time name="orth">    0.00    0.00</time>
   <time name="total">    0.31    0.31</time>
   <energy>
    <i name="e_fr_energy">    -16.47277990 </i>
    <i name="e_wo_entrp">    -16.46898582 </i>
    <i name="e_0_energy">    -16.47088286 </i>
   </energy>
  </scstep>
  <scstep>
   <time name="diag">    0.03    0.03</time>
   <time name="diis">    0.07    0.08</time>
   <time name="orth">    0.00    0.00</time>
   <time name="total">    0.30    0.30</time>
   <energy>
    <i name="e_fr_energy">    -16.47293863 </i>
    <i name="e_wo_entrp">    -16.46943183 </i>
    <i name="e_0_energy">    -16.47118523 </i>
   </energy>
  </scstep>
  <scstep>
   <time name="diag">    0.03    0.03</time>
   <time name="diis">    0.07    0.07</time>
   <time name="orth">    0.00    0.00</time>
   <time name="total">    0.29    0.29</time>
   <energy>
    <i name="e_fr_energy">    -16.47297576 </i>
    <i name="e_wo_entrp">    -16.46958825 </i>
    <i name="e_0_energy">    -16.47128200 </i>
   </energy>
  </scstep>
  <scstep>
   <time name="diag">    0.03    0.03</time>
   <time name="diis">    0.07    0.07</time>
   <time name="orth">    0.00    0.00</time>
   <time name="total">    0.29    0.29</time>
   <energy>
    <i name="e_fr_energy">    -16.47295146 </i>
    <i name="e_wo_entrp">    -16.46960109 </i>
    <i name="e_0_energy">    -16.47127627 </i>
   </energy>
  </scstep>
  <scstep>
   <time name="diag">    0.03    0.03</time>
   <time name="diis">    0.05    0.05</time>
   <time name="orth">    0.00    0.00</time>
   <time name="total">    0.25    0.25</time>
   <energy>
    <i name="alphaZ">    117.79976207 </i>
    <i name="ewald">  -1171.43779554 </i>
    <i name="hartreedc">   -195.41085238 </i>
    <i name="XCdc">      8.42950035 </i>
    <i name="pawpsdc">   1408.84567559 </i>
    <i name="pawaedc">  -1426.61699628 </i>
    <i name="eentropy">     -0.00335085 </i>
    <i name="bandstr">     53.29573555 </i>
    <i name="atom">   1188.62536141 </i>
    <i name="e_fr_energy">    -16.47296008 </i>
    <i name="e_wo_entrp">    -16.46960923 </i>
    <i name="e_0_energy">    -16.47128465 </i>
   </energy>
  </scstep>
  <structure>
   <crystal>
    <varray name="basis" >
     <v>       2.86303550       0.00000000       0.00000000 </v>
     <v>       0.00000000       2.86303550       0.00000000 </v>
     <v>       0.00000000       0.00000000       2.86303550 </v>
    </varray>
    <i name="volume">     23.46822261 </i>
    <varray name="rec_basis" >
     <v>       0.34927964       0.00000000       0.00000000 </v>
     <v>       0.00000000       0.34927964       0.00000000 </v>
     <v>       0.00000000       0.00000000       0.34927964 </v>
    </varray>
   </crystal>
   <varray name="positions" >
    <v>       0.00000000       0.00000000       0.00000000 </v>
    <v>       0.50000000       0.50000000       0.50000000 </v>
   </varray>
  </structure>
  <varray name="forces" >
   <v>       0.00000000       0.00000000       0.00000000 </v>
   <v>      -0.00000000      -0.00000000      -0.00000000 </v>
  </varray>
  <varray name="stress" >
   <v>     -66.95558531      -0.00000000      -0.00000000 </v>
   <v>      -0.00000000     -66.95558531      -0.00000000 </v>
   <v>       0.00000000      -0.00000000     -66.95558531 </v>
  </varray>
  <energy>
   <i name="e_fr_energy">    -16.47296008 </i>
   <i name="e_wo_entrp">    -16.46960923 </i>
   <i name="e_0_energy">    -16.47128465 </i>
  </energy>
  <time name="totalsc">    6.87    6.89</time>
 </calculation>
 <calculation>
  <scstep>
   <time name="dav">    0.13    0.13</time>
   <time name="total">    0.32    0.32</time>
   <energy>
    <i name="alphaZ">    126.57181679 </i>
    <i name="ewald">  -1199.82184732 </i>
    <i name="hartreedc">   -200.17201726 </i>
    <i name="XCdc">      9.85513361 </i>
    <i name="pawpsdc">   1409.55962384 </i>
    <i name="pawaedc">  -1427.34894751 </i>
    <i name="eentropy">     -0.00002534 </i>
    <i name="bandstr">     75.43321928 </i>
    <i name="atom">   1188.62536141 </i>
    <i name="e_fr_energy">    -17.29768250 </i>
    <i name="e_wo_entrp">    -17.29765716 </i>
    <i name="e_0_energy">    -17.29766983 </i>
   </energy>
  </scstep>
  <scstep>
   <time name="diag">    0.03    0.03</time>
   <time name="diis">    0.08    0.08</time>
   <time name="orth">    0.00    0.00</time>
   <time name="total">    0.30    0.30</time>
   <energy>
    <i name="e_fr_energy">    -16.53245647 </i>
    <i name="e_wo_entrp">    -16.53071277 </i>
    <i name="e_0_energy">    -16.53158462 </i>
   </energy>
  </scstep>
  <scstep>
   <time name="diag">    0.03    0.03</time>
   <time name="diis">    0.08    0.08</time>
   <time name="orth">    0.00    0.00</time>
   <time name="total">    0.30    0.30</time>
   <energy>
    <i name="e_fr_energy">    -16.49895637 </i>
    <i name="e_wo_entrp">    -16.49701934 </i>
    <i name="e_0_energy">    -16.49798786 </i>
   </energy>
  </scstep>
  <scstep>
   <time name="diag">    0.03    0.03</time>
   <time name="diis">    0.08    0.08</time>
   <time name="orth">    0.00    0.00</time>
   <time name="total">    0.30    0.30</time>
   <energy>
    <i name="e_fr_energy">    -16.49194347 </i>
    <i name="e_wo_entrp">    -16.48990112 </i>
    <i name="e_0_energy">    -16.49092229 </i>
   </energy>
  </scstep>
  <scstep>
   <time name="diag">    0.03    0.03</time>
   <time name="diis">    0.08    0.08</time>
   <time name="orth">    0.00    0.00</time>
   <time name="total">    0.30    0.30</time>
   <energy>
    <i name="e_fr_energy">    -16.48601633 </i>
    <i name="e_wo_entrp">    -16.48416418 </i>
    <i name="e_0_energy">    -16.48509025 </i>
   </energy>
  </scstep>
  <scstep>
   <time name="diag">    0.03    0.03</time>
   <time name="diis">    0.08    0.08</time>
   <time name="orth">    0.00    0.00</time>
   <time name="total">    0.30    0.30</time>
   <energy>
    <i name="e_fr_energy">    -16.48618000 </i>
    <i name="e_wo_entrp">    -16.48431934 </i>
    <i name="e_0_energy">    -16.48524967 </i>
   </energy>
  </scstep>
  <scstep>
   <time name="diag">    0.03    0.03</time>
   <time name="diis">    0.08    0.08</time>
   <time name="orth">    0.00    0.00</time>
   <time name="total">    0.28    0.28</time>
   <energy>
    <i name="alphaZ">    126.57181679 </i>
    <i name="ewald">  -1199.82184732 </i>
    <i name="hartreedc">   -184.40107799 </i>
    <i name="XCdc">      8.65150303 </i>
    <i name="pawpsdc">   1474.90767995 </i>
    <i name="pawaedc">  -1493.21521883 </i>
    <i name="eentropy">     -0.00186270 </i>
    <i name="bandstr">     62.19746666 </i>
    <i name="atom">   1188.62536141 </i>
    <i name="e_fr_energy">    -16.48617899 </i>
    <i name="e_wo_entrp">    -16.48431629 </i>
    <i name="e_0_energy">    -16.48524764 </i>
   </energy>
  </scstep>
  <structure>
   <crystal>
    <varray name="basis" >
     <v>       2.79530499      -0.00000000      -0.00000000 </v>
     <v>      -0.00000000       2.79530499      -0.00000000 </v>
     <v>       0.00000000      -0.00000000       2.79530499 </v>
    </varray>
    <i name="volume">     21.84175838 </i>
    <varray name="rec_basis" >
     <v>       0.35774272       0.00000000      -0.00000000 </v>
     <v>       0.00000000       0.35774272       0.00000000 </v>
     <v>       0.00000000       0.00000000       0.35774272 </v>
    </varray>
   </crystal>
   <varray name="positions" >
    <v>       0.00000000       0.00000000       0.00000000 </v>
    <v>       0.50000000       0.50000000       0.50000000 </v>
   </varray>
  </structure>
  <varray name="forces" >
   <v>       0.00000000       0.00000000       0.00000000 </v>
   <v>      -0.00000000      -0.00000000      -0.00000000 </v>
  </varray>
  <varray name="stress" >
   <v>      64.50659031       0.00000000      -0.00000000 </v>
   <v>      -0.00000000      64.50659031       0.00000000 </v>
   <v>      -0.00000000       0.00000000      64.50659031 </v>
  </varray>
  <energy>
   <i name="e_fr_energy">    -16.48617899 </i>
   <i name="e_wo_entrp">    -16.48431629 </i>
   <i name="e_0_energy">    -16.48524764 </i>
  </energy>
  <time name="totalsc">    2.59    2.60</time>
 </calculation>
 <calculation>
  <scstep>
   <time name="dav">    0.13    0.13</time>
   <time name="total">    0.32    0.32</time>
   <energy>
    <i name="alphaZ">    123.22125498 </i>
    <i name="ewald">  -1189.13995122 </i>
    <i name="hartreedc">   -182.80956410 </i>
    <i name="XCdc">      8.14272465 </i>
    <i name="pawpsdc">   1475.89037776 </i>
    <i name="pawaedc">  -1494.16619724 </i>
    <i name="eentropy">     -0.00177646 </i>
    <i name="bandstr">     53.63408985 </i>
    <i name="atom">   1188.62536141 </i>
    <i name="e_fr_energy">    -16.60368036 </i>
    <i name="e_wo_entrp">    -16.60190391 </i>
    <i name="e_0_energy">    -16.60279213 </i>
   </energy>
  </scstep>
  <scstep>
   <time name="diag">    0.03    0.03</time>
   <time name="diis">    0.08    0.08</time>
   <time name="orth">    0.00    0.00</time>
   <time name="total">    0.30    0.30</time>
   <energy>
    <i name="e_fr_energy">    -16.50630145 </i>
    <i name="e_wo_entrp">    -16.50479513 </i>
    <i name="e_0_energy">    -16.50554829 </i>
   </energy>
  </scstep>
  <scstep>
   <time name="diag">    0.03    0.03</time>
   <time name="diis">    0.08    0.08</time>
   <time name="orth">    0.00    0.00</time>
   <time name="total">    0.30    0.30</time>
   <energy>
    <i name="e_fr_energy">    -16.50162098 </i>
    <i name="e_wo_entrp">    -16.50011198 </i>
    <i name="e_0_energy">    -16.50086648 </i>
   </energy>
  </scstep>
  <scstep>
   <time name="diag">    0.03    0.03</time>
   <time name="diis">    0.08    0.08</time>
   <time name="orth">    0.00    0.00</time>
   <time name="total">    0.30    0.30</time>
   <energy>
    <i name="e_fr_energy">    -16.50041624 </i>
    <i name="e_wo_entrp">    -16.49890600 </i>
    <i name="e_0_energy">    -16.49966112 </i>
   </energy>
  </scstep>
  <scstep>
   <time name="diag">    0.03    0.03</time>
   <time name="diis">    0.08    0.08</time>
   <time name="orth">    0.00    0.00</time>
   <time name="total">    0.30    0.30</time>
   <energy>
    <i name="e_fr_energy">    -16.49944103 </i>
    <i name="e_wo_entrp">    -16.49792956 </i>
    <i name="e_0_energy">    -16.49868529 </i>
   </energy>
  </scstep>
  <scstep>
   <time name="diag">    0.03    0.03</time>
   <time name="diis">    0.08    0.08</time>
   <time name="orth">    0.00    0.00</time>
   <time name="total">    0.30    0.30</time>
   <energy>
    <i name="e_fr_energy">    -16.49946182 </i>
    <i name="e_wo_entrp">    -16.49795003 </i>
    <i name="e_0_energy">    -16.49870593 </i>
   </energy>
  </scstep>
  <scstep>
   <time name="diag">    0.03    0.03</time>
   <time name="diis">    0.06    0.06</time>
   <time name="orth">    0.00    0.00</time>
   <time name="total">    0.26    0.26</time>
   <energy>
    <i name="alphaZ">    123.22125498 </i>
    <i name="ewald">  -1189.13995122 </i>
    <i name="hartreedc">   -188.46082892 </i>
    <i name="XCdc">      8.51888232 </i>
    <i name="pawpsdc">   1448.43256281 </i>
    <i name="pawaedc">  -1466.45553771 </i>
    <i name="eentropy">     -0.00151180 </i>
    <i name="bandstr">     58.76030251 </i>
    <i name="atom">   1188.62536141 </i>
    <i name="e_fr_energy">    -16.49946563 </i>
    <i name="e_wo_entrp">    -16.49795382 </i>
    <i name="e_0_energy">    -16.49870972 </i>
   </energy>
  </scstep>
  <structure>
   <crystal>
    <varray name="basis" >
     <v>       2.82041486      -0.00000000      -0.00000000 </v>
     <v>      -0.00000000       2.82041486      -0.00000000 </v>
     <v>       0.00000000      -0.00000000       2.82041486 </v>
    </varray>
    <i name="volume">     22.43566697 </i>
    <varray name="rec_basis" >
     <v>       0.35455777       0.00000000      -0.00000000 </v>
     <v>       0.00000000       0.35455777       0.00000000 </v>
     <v>       0.00000000       0.00000000       0.35455777 </v>
    </varray>
   </crystal>
   <varray name="positions" >
    <v>       0.00000000       0.00000000       0.00000000 </v>
    <v>       0.50000000       0.50000000       0.50000000 </v>
   </varray>
  </structure>
  <varray name="forces" >
   <v>      -0.00000000      -0.00000000      -0.00000000 </v>
   <v>       0.00000000       0.00000000       0.00000000 </v>
  </varray>
  <varray name="stress" >
   <v>       7.73005758      -0.00000000       0.00000000 </v>
   <v>       0.00000000       7.73005758      -0.00000000 </v>
   <v>      -0.00000000       0.00000000       7.73005758 </v>
  </varray>
  <energy>
   <i name="e_fr_energy">    -16.49946563 </i>
   <i name="e_wo_entrp">    -16.49795382 </i>
   <i name="e_0_energy">    -16.49870972 </i>
  </energy>
  <time name="totalsc">    2.56    2.57</time>
 </calculation>
 <calculation>
  <scstep>
   <time name="dav">    0.14    0.14</time>
   <time name="total">    0.32    0.32</time>
   <energy>
    <i name="alphaZ">    122.66765376 </i>
    <i name="ewald">  -1187.35644488 </i>
    <i name="hartreedc">   -188.16799216 </i>
    <i name="XCdc">      8.43296164 </i>
    <i name="pawpsdc">   1448.16225203 </i>
    <i name="pawaedc">  -1466.19554689 </i>
    <i name="eentropy">     -0.00151872 </i>
    <i name="bandstr">     57.33083237 </i>
    <i name="atom">   1188.62536141 </i>
    <i name="e_fr_energy">    -16.50244144 </i>
    <i name="e_wo_entrp">    -16.50092272 </i>
    <i name="e_0_energy">    -16.50168208 </i>
   </energy>
  </scstep>
  <scstep>
   <time name="diag">    0.03    0.03</time>
   <time name="diis">    0.08    0.08</time>
   <time name="orth">    0.00    0.00</time>
   <time name="total">    0.30    0.30</time>
   <energy>
    <i name="e_fr_energy">    -16.49961219 </i>
    <i name="e_wo_entrp">    -16.49809816 </i>
    <i name="e_0_energy">    -16.49885518 </i>
   </energy>
  </scstep>
  <scstep>
   <time name="diag">    0.03    0.03</time>
   <time name="diis">    0.08    0.08</time>
   <time name="orth">    0.00    0.00</time>
   <time name="total">    0.30    0.30</time>
   <energy>
    <i name="e_fr_energy">    -16.49947408 </i>
    <i name="e_wo_entrp">    -16.49795956 </i>
    <i name="e_0_energy">    -16.49871682 </i>
   </energy>
  </scstep>
  <scstep>
   <time name="diag">    0.03    0.03</time>
   <time name="diis">    0.07    0.07</time>
   <time name="orth">    0.00    0.00</time>
   <time name="total">    0.29    0.29</time>
   <energy>
    <i name="e_fr_energy">    -16.49943959 </i>
    <i name="e_wo_entrp">    -16.49792499 </i>
    <i name="e_0_energy">    -16.49868229 </i>
   </energy>
  </scstep>
  <scstep>
   <time name="diag">    0.03    0.03</time>
   <time name="diis">    0.06    0.06</time>
   <time name="orth">    0.00    0.00</time>
   <time name="total">    0.28    0.28</time>
   <energy>
    <i name="e_fr_energy">    -16.49941158 </i>
    <i name="e_wo_entrp">    -16.49789683 </i>
    <i name="e_0_energy">    -16.49865420 </i>
   </energy>
  </scstep>
  <scstep>
   <time name="diag">    0.03    0.03</time>
   <time name="diis">    0.05    0.05</time>
   <time name="orth">    0.00    0.00</time>
   <time name="total">    0.25    0.25</time>
   <energy>
    <i name="alphaZ">    122.66765376 </i>
    <i name="ewald">  -1187.35644488 </i>
    <i name="hartreedc">   -189.13782061 </i>
    <i name="XCdc">      8.49497527 </i>
    <i name="pawpsdc">   1443.70275382 </i>
    <i name="pawaedc">  -1461.69560808 </i>
    <i name="eentropy">     -0.00151474 </i>
    <i name="bandstr">     58.20123167 </i>
    <i name="atom">   1188.62536141 </i>
    <i name="e_fr_energy">    -16.49941239 </i>
    <i name="e_wo_entrp">    -16.49789764 </i>
    <i name="e_0_energy">    -16.49865501 </i>
   </energy>
  </scstep>
  <structure>
   <crystal>
    <varray name="basis" >
     <v>       2.82465136      -0.00000000      -0.00000000 </v>
     <v>      -0.00000000       2.82465136      -0.00000000 </v>
     <v>       0.00000000      -0.00000000       2.82465136 </v>
    </varray>
    <i name="volume">     22.53691952 </i>
    <varray name="rec_basis" >
     <v>       0.35402599       0.00000000      -0.00000000 </v>
     <v>       0.00000000       0.35402599       0.00000000 </v>
     <v>       0.00000000       0.00000000       0.35402599 </v>
    </varray>
   </crystal>
   <varray name="positions" >
    <v>       0.00000000       0.00000000       0.00000000 </v>
    <v>       0.50000000       0.50000000       0.50000000 </v>
   </varray>
  </structure>
  <varray name="forces" >
   <v>      -0.00000000       0.00000000       0.00000000 </v>
   <v>       0.00000000      -0.00000000      -0.00000000 </v>
  </varray>
  <varray name="stress" >
   <v>      -6.58811203      -0.00000000      -0.00000000 </v>
   <v>      -0.00000000      -6.58811203       0.00000000 </v>
   <v>      -0.00000000      -0.00000000      -6.58811203 </v>
  </varray>
  <energy>
   <i name="e_fr_energy">    -16.49941239 </i>
   <i name="e_wo_entrp">    -16.49789764 </i>
   <i name="e_0_energy">    -16.49865501 </i>
  </energy>
  <time name="totalsc">    2.23    2.23</time>
 </calculation>
 <calculation>
  <scstep>
   <time name="dav">    0.13    0.13</time>
   <time name="total">    0.32    0.32</time>
   <energy>
    <i name="alphaZ">    122.92258455 </i>
    <i name="ewald">  -1188.17840640 </i>
    <i name="hartreedc">   -189.26182560 </i>
    <i name="XCdc">      8.53438775 </i>
    <i name="pawpsdc">   1443.62493629 </i>
    <i name="pawaedc">  -1461.61855204 </i>
    <i name="eentropy">     -0.00151326 </i>
    <i name="bandstr">     58.85288335 </i>
    <i name="atom">   1188.62536141 </i>
    <i name="e_fr_energy">    -16.50014395 </i>
    <i name="e_wo_entrp">    -16.49863069 </i>
    <i name="e_0_energy">    -16.49938732 </i>
   </energy>
  </scstep>
  <scstep>
   <time name="diag">    0.03    0.04</time>
   <time name="diis">    0.08    0.08</time>
   <time name="orth">    0.00    0.00</time>
   <time name="total">    0.31    0.31</time>
   <energy>
    <i name="e_fr_energy">    -16.49955956 </i>
    <i name="e_wo_entrp">    -16.49804612 </i>
    <i name="e_0_energy">    -16.49880284 </i>
   </energy>
  </scstep>
  <scstep>
   <time name="diag">    0.03    0.03</time>
   <time name="diis">    0.08    0.08</time>
   <time name="orth">    0.00    0.00</time>
   <time name="total">    0.30    0.30</time>
   <energy>
    <i name="e_fr_energy">    -16.49953024 </i>
    <i name="e_wo_entrp">    -16.49801703 </i>
    <i name="e_0_energy">    -16.49877364 </i>
   </energy>
  </scstep>
  <scstep>
   <time name="diag">    0.03    0.03</time>
   <time name="diis">    0.06    0.06</time>
   <time name="orth">    0.00    0.00</time>
   <time name="total">    0.25    0.25</time>
   <energy>
    <i name="alphaZ">    122.92258455 </i>
    <i name="ewald">  -1188.17840640 </i>
    <i name="hartreedc">   -188.84718662 </i>
    <i name="XCdc">      8.50883497 </i>
    <i name="pawpsdc">   1444.93073900 </i>
    <i name="pawaedc">  -1462.91812144 </i>
    <i name="eentropy">     -0.00151312 </i>
    <i name="bandstr">     58.45818394 </i>
    <i name="atom">   1188.62536141 </i>
    <i name="e_fr_energy">    -16.49952370 </i>
    <i name="e_wo_entrp">    -16.49801058 </i>
    <i name="e_0_energy">    -16.49876714 </i>
   </energy>
  </scstep>
  <structure>
   <crystal>
    <varray name="basis" >
     <v>       2.82269731      -0.00000000      -0.00000000 </v>
     <v>      -0.00000000       2.82269731      -0.00000000 </v>
     <v>       0.00000000      -0.00000000       2.82269731 </v>
    </varray>
    <i name="volume">     22.49017990 </i>
    <varray name="rec_basis" >
     <v>       0.35427107       0.00000000      -0.00000000 </v>
     <v>       0.00000000       0.35427107       0.00000000 </v>
     <v>       0.00000000       0.00000000       0.35427107 </v>
    </varray>
   </crystal>
   <varray name="positions" >
    <v>       0.00000000       0.00000000       0.00000000 </v>
    <v>       0.50000000       0.50000000       0.50000000 </v>
   </varray>
  </structure>
  <varray name="forces" >
   <v>       0.00000000       0.00000000      -0.00000000 </v>
   <v>      -0.00000000      -0.00000000       0.00000000 </v>
  </varray>
  <varray name="stress" >
   <v>       0.68787805       0.00000000      -0.00000000 </v>
   <v>       0.00000000       0.68787805       0.00000000 </v>
   <v>      -0.00000000       0.00000000       0.68787805 </v>
  </varray>
  <energy>
   <i name="e_fr_energy">    -16.49952370 </i>
   <i name="e_wo_entrp">    -16.49801058 </i>
   <i name="e_0_energy">    -16.49876714 </i>
  </energy>
  <time name="totalsc">    1.66    1.67</time>
  <eigenvalues>
   <array>
    <dimension dim="1">band</dimension>
    <dimension dim="2">kpoint</dimension>
    <dimension dim="3">spin</dimension>
    <field>eigene</field>
    <field>occ</field>
    <set>
     <set comment="spin 1">
      <set comment="kpoint 1">
       <r>   -2.5438    1.0000 </r>
       <r>    1.0538    1.0000 </r>
       <r>    1.0538    1.0000 </r>
       <r>    3.6576    1.0000 </r>
       <r>    3.6576    1.0000 </r>
       <r>    3.6576    1.0000 </r>
       <r>    4.8760    1.0000 </r>
       <r>    4.8760    1.0000 </r>
       <r>    6.1174    0.0001 </r>
       <r>    6.1174    0.0001 </r>
       <r>    6.1174    0.0001 </r>
       <r>   15.9631    0.0000 </r>
       <r>   15.9631    0.0000 </r>
       <r>   15.9631    0.0000 </r>
       <r>   21.7079    0.0000 </r>
       <r>   21.7079    0.0000 </r>
      </set>
      <set comment="kpoint 2">
       <r>   -1.9720    1.0000 </r>
       <r>    1.2939    1.0000 </r>
       <r>    1.2999    1.0000 </r>
       <r>    3.6594    1.0000 </r>
       <r>    3.6594    1.0000 </r>
       <r>    3.8155    1.0000 </r>
       <r>    4.6177    1.0000 </r>
       <r>    4.9771    1.0000 </r>
       <r>    5.6706    1.0000 </r>
       <r>    5.6707    1.0000 </r>
       <r>    5.9460    0.8845 </r>
       <r>   12.9739    0.0000 </r>
       <r>   17.0176    0.0000 </r>
       <r>   17.0176    0.0000 </r>
       <r>   21.8772    0.0000 </r>
       <r>   23.4634    0.0000 </r>
      </set>
      <set comment="kpoint 3">
       <r>   -0.4314    1.0000 </r>
       <r>    1.6977    1.0000 </r>
       <r>    1.9830    1.0000 </r>
       <r>    3.7525    1.0000 </r>
       <r>    3.7525    1.0000 </r>
       <r>    3.9072    1.0000 </r>
       <r>    4.2520    1.0000 </r>
       <r>    4.8066    1.0000 </r>
       <r>    4.8066    1.0000 </r>
       <r>    5.2793    1.0000 </r>
       <r>    5.4824    1.0000 </r>
       <r>    8.9024    0.0000 </r>
       <r>   19.6651    0.0000 </r>
       <r>   19.6651    0.0000 </r>
       <r>   22.4464    0.0000 </r>
       <r>   24.5543    0.0000 </r>
      </set>
      <set comment="kpoint 4">
       <r>    1.2644    1.0000 </r>
       <r>    1.2644    1.0000 </r>
       <r>    2.9375    1.0000 </r>
       <r>    2.9375    1.0000 </r>
       <r>    4.1079    1.0000 </r>
       <r>    4.1079    1.0000 </r>
       <r>    4.1079    1.0000 </r>
       <r>    4.1079    1.0000 </r>
       <r>    4.8604    1.0000 </r>
       <r>    4.8604    1.0000 </r>
       <r>    6.1991    0.0000 </r>
       <r>    6.1991    0.0000 </r>
       <r>   23.1864    0.0000 </r>
       <r>   23.1864    0.0000 </r>
       <r>   23.1864    0.0000 </r>
       <r>   23.1865    0.0000 </r>
      </set>
      <set comment="kpoint 5">
       <r>   -1.4331    1.0000 </r>
       <r>    1.4709    1.0000 </r>
       <r>    1.5759    1.0000 </r>
       <r>    3.3667    1.0000 </r>
       <r>    3.5798    1.0000 </r>
       <r>    4.2563    1.0000 </r>
       <r>    4.6901    1.0000 </r>
       <r>    4.9052    1.0000 </r>
       <r>    4.9712    1.0000 </r>
       <r>    5.2557    1.0000 </r>
       <r>    6.1855    0.0000 </r>
       <r>   13.1324    0.0000 </r>
       <r>   14.5633    0.0000 </r>
       <r>   17.9194    0.0000 </r>
       <r>   22.7397    0.0000 </r>
       <r>   25.6094    0.0000 </r>
      </set>
      <set comment="kpoint 6">
       <r>   -0.0377    1.0000 </r>
       <r>    1.7631    1.0000 </r>
       <r>    2.2235    1.0000 </r>
       <r>    3.2417    1.0000 </r>
       <r>    3.4542    1.0000 </r>
       <r>    4.0840    1.0000 </r>
       <r>    4.4630    1.0000 </r>
       <r>    4.6248    1.0000 </r>
       <r>    4.8646    1.0000 </r>
       <r>    5.1805    1.0000 </r>
       <r>    6.0091    0.2788 </r>
       <r>    9.4052    0.0000 </r>
       <r>   16.1602    0.0000 </r>
       <r>   20.3184    0.0000 </r>
       <r>   22.0822    0.0000 </r>
       <r>   23.3676    0.0000 </r>
      </set>
      <set comment="kpoint 7">
       <r>    1.3576    1.0000 </r>
       <r>    1.3576    1.0000 </r>
       <r>    2.9641    1.0000 </r>
       <r>    2.9641    1.0000 </r>
       <r>    3.4650    1.0000 </r>
       <r>    3.4650    1.0000 </r>
       <r>    4.4538    1.0000 </r>
       <r>    4.4538    1.0000 </r>
       <r>    5.4987    1.0000 </r>
       <r>    5.4987    1.0000 </r>
       <r>    6.3541    0.0000 </r>
       <r>    6.3541    0.0000 </r>
       <r>   18.8503    0.0000 </r>
       <r>   18.8503    0.0000 </r>
       <r>   23.6836    0.0000 </r>
       <r>   23.6836    0.0000 </r>
      </set>
      <set comment="kpoint 8">
       <r>    0.6928    1.0000 </r>
       <r>    1.5168    1.0000 </r>
       <r>    2.8166    1.0000 </r>
       <r>    3.1185    1.0000 </r>
       <r>    3.2576    1.0000 </r>
       <r>    3.9834    1.0000 </r>
       <r>    4.5750    1.0000 </r>
       <r>    4.8725    1.0000 </r>
       <r>    5.0015    1.0000 </r>
       <r>    5.6089    1.0000 </r>
       <r>    6.3232    0.0000 </r>
       <r>    9.2474    0.0000 </r>
       <r>   13.5931    0.0000 </r>
       <r>   18.1035    0.0000 </r>
       <r>   22.1951    0.0000 </r>
       <r>   23.7252    0.0000 </r>
      </set>
      <set comment="kpoint 9">
       <r>    1.1486    1.0000 </r>
       <r>    1.1486    1.0000 </r>
       <r>    2.8025    1.0000 </r>
       <r>    2.8025    1.0000 </r>
       <r>    4.0075    1.0000 </r>
       <r>    4.0075    1.0000 </r>
       <r>    4.8358    1.0000 </r>
       <r>    4.8358    1.0000 </r>
       <r>    6.1512    0.0000 </r>
       <r>    6.1512    0.0000 </r>
       <r>    6.5911    0.0000 </r>
       <r>    6.5911    0.0000 </r>
       <r>   15.0381    0.0000 </r>
       <r>   15.0381    0.0000 </r>
       <r>   24.4901    0.0000 </r>
       <r>   24.4901    0.0000 </r>
      </set>
      <set comment="kpoint 10">
       <r>    0.9886    1.0000 </r>
       <r>    0.9886    1.0000 </r>
       <r>    2.5557    1.0000 </r>
       <r>    2.5557    1.0000 </r>
       <r>    4.9506    1.0000 </r>
       <r>    4.9506    1.0000 </r>
       <r>    5.0701    1.0000 </r>
       <r>    5.0701    1.0000 </r>
       <r>    6.3927    0.0000 </r>
       <r>    6.3927    0.0000 </r>
       <r>    6.4664    0.0000 </r>
       <r>    6.4664    0.0000 </r>
       <r>   13.4132    0.0000 </r>
       <r>   13.4132    0.0000 </r>
       <r>   24.3982    0.0000 </r>
       <r>   24.3982    0.0000 </r>
      </set>
      <set comment="kpoint 11">
       <r>   -0.9123    1.0000 </r>
       <r>    1.7450    1.0000 </r>
       <r>    1.7450    1.0000 </r>
       <r>    3.2722    1.0000 </r>
       <r>    3.2722    1.0000 </r>
       <r>    4.1468    1.0000 </r>
       <r>    4.7373    1.0000 </r>
       <r>    4.8131    1.0000 </r>
       <r>    4.8131    1.0000 </r>
       <r>    5.7450    1.0000 </r>
       <r>    5.7450    1.0000 </r>
       <r>   14.0321    0.0000 </r>
       <r>   14.0321    0.0000 </r>
       <r>   15.7288    0.0000 </r>
       <r>   25.6369    0.0000 </r>
       <r>   25.6369    0.0000 </r>
      </set>
      <set comment="kpoint 12">
       <r>    0.3924    1.0000 </r>
       <r>    2.1174    1.0000 </r>
       <r>    2.1813    1.0000 </r>
       <r>    3.0414    1.0000 </r>
       <r>    3.1580    1.0000 </r>
       <r>    3.4643    1.0000 </r>
       <r>    4.6051    1.0000 </r>
       <r>    4.9897    1.0000 </r>
       <r>    5.0806    1.0000 </r>
       <r>    5.5532    1.0000 </r>
       <r>    5.7850    1.0000 </r>
       <r>   10.0964    0.0000 </r>
       <r>   16.1469    0.0000 </r>
       <r>   17.0920    0.0000 </r>
       <r>   21.9631    0.0000 </r>
       <r>   22.9938    0.0000 </r>
      </set>
      <set comment="kpoint 13">
       <r>    1.6103    1.0000 </r>
       <r>    1.6103    1.0000 </r>
       <r>    2.6814    1.0000 </r>
       <r>    2.6814    1.0000 </r>
       <r>    3.4195    1.0000 </r>
       <r>    3.4195    1.0000 </r>
       <r>    4.5637    1.0000 </r>
       <r>    4.5637    1.0000 </r>
       <r>    5.4196    1.0000 </r>
       <r>    5.4196    1.0000 </r>
       <r>    7.0389    0.0000 </r>
       <r>    7.0389    0.0000 </r>
       <r>   18.8334    0.0000 </r>
       <r>   18.8334    0.0000 </r>
       <r>   19.6314    0.0000 </r>
       <r>   19.6314    0.0000 </r>
      </set>
      <set comment="kpoint 14">
       <r>    1.1702    1.0000 </r>
       <r>    1.8708    1.0000 </r>
       <r>    2.7310    1.0000 </r>
       <r>    2.8932    1.0000 </r>
       <r>    3.0476    1.0000 </r>
       <r>    3.3107    1.0000 </r>
       <r>    4.8763    1.0000 </r>
       <r>    4.8855    1.0000 </r>
       <r>    5.0092    1.0000 </r>
       <r>    5.7579    1.0000 </r>
       <r>    6.5694    0.0000 </r>
       <r>   10.4281    0.0000 </r>
       <r>   13.6790    0.0000 </r>
       <r>   18.0970    0.0000 </r>
       <r>   18.4129    0.0000 </r>
       <r>   22.9070    0.0000 </r>
      </set>
      <set comment="kpoint 15">
       <r>    1.5296    1.0000 </r>
       <r>    1.5296    1.0000 </r>
       <r>    2.6687    1.0000 </r>
       <r>    2.6687    1.0000 </r>
       <r>    3.7149    1.0000 </r>
       <r>    3.7149    1.0000 </r>
       <r>    4.8819    1.0000 </r>
       <r>    4.8819    1.0000 </r>
       <r>    5.3692    1.0000 </r>
       <r>    5.3692    1.0000 </r>
       <r>    8.1167    0.0000 </r>
       <r>    8.1167    0.0000 </r>
       <r>   15.2806    0.0000 </r>
       <r>   15.2806    0.0000 </r>
       <r>   20.3785    0.0000 </r>
       <r>   20.3785    0.0000 </r>
      </set>
      <set comment="kpoint 16">
       <r>    1.3705    1.0000 </r>
       <r>    1.3705    1.0000 </r>
       <r>    2.5093    1.0000 </r>
       <r>    2.5093    1.0000 </r>
       <r>    4.6316    1.0000 </r>
       <r>    4.6316    1.0000 </r>
       <r>    4.9971    1.0000 </r>
       <r>    4.9971    1.0000 </r>
       <r>    5.0792    1.0000 </r>
       <r>    5.0792    1.0000 </r>
       <r>    8.7415    0.0000 </r>
       <r>    8.7415    0.0000 </r>
       <r>   13.5030    0.0000 </r>
       <r>   13.5030    0.0000 </r>
       <r>   21.8579    0.0000 </r>
       <r>   21.8579    0.0000 </r>
      </set>
      <set comment="kpoint 17">
       <r>    2.2513    1.0000 </r>
       <r>    2.2561    1.0000 </r>
       <r>    2.5942    1.0000 </r>
       <r>    2.5942    1.0000 </r>
       <r>    2.8267    1.0000 </r>
       <r>    2.8267    1.0000 </r>
       <r>    5.0116    1.0000 </r>
       <r>    5.0116    1.0000 </r>
       <r>    5.1903    1.0000 </r>
       <r>    5.1903    1.0000 </r>
       <r>    8.0775    0.0000 </r>
       <r>   12.8175    0.0000 </r>
       <r>   12.8175    0.0000 </r>
       <r>   15.5217    0.0000 </r>
       <r>   19.1578    0.0000 </r>
       <r>   19.1578    0.0000 </r>
      </set>
      <set comment="kpoint 18">
       <r>    2.1463    1.0000 </r>
       <r>    2.1463    1.0000 </r>
       <r>    2.6104    1.0000 </r>
       <r>    2.6104    1.0000 </r>
       <r>    3.1766    1.0000 </r>
       <r>    3.1766    1.0000 </r>
       <r>    5.0220    1.0000 </r>
       <r>    5.0220    1.0000 </r>
       <r>    5.1486    1.0000 </r>
       <r>    5.1486    1.0000 </r>
       <r>   10.0569    0.0000 </r>
       <r>   10.0569    0.0000 </r>
       <r>   15.7649    0.0000 </r>
       <r>   15.7649    0.0000 </r>
       <r>   16.9156    0.0000 </r>
       <r>   16.9156    0.0000 </r>
      </set>
      <set comment="kpoint 19">
       <r>    2.2227    1.0000 </r>
       <r>    2.2227    1.0000 </r>
       <r>    2.4816    1.0000 </r>
       <r>    2.4816    1.0000 </r>
       <r>    3.3937    1.0000 </r>
       <r>    3.3937    1.0000 </r>
       <r>    5.0787    1.0000 </r>
       <r>    5.0787    1.0000 </r>
       <r>    5.0973    1.0000 </r>
       <r>    5.0973    1.0000 </r>
       <r>   11.5062    0.0000 </r>
       <r>   11.5062    0.0000 </r>
       <r>   13.9437    0.0000 </r>
       <r>   13.9437    0.0000 </r>
       <r>   18.1647    0.0000 </r>
       <r>   18.1647    0.0000 </r>
      </set>
      <set comment="kpoint 20">
       <r>    2.7093    1.0000 </r>
       <r>    2.7093    1.0000 </r>
       <r>    2.7093    1.0000 </r>
       <r>    2.7093    1.0000 </r>
       <r>    2.7093    1.0000 </r>
       <r>    2.7093    1.0000 </r>
       <r>    5.1065    1.0000 </r>
       <r>    5.1065    1.0000 </r>
       <r>    5.1065    1.0000 </r>
       <r>    5.1065    1.0000 </r>
       <r>   14.6671    0.0000 </r>
       <r>   14.6671    0.0000 </r>
       <r>   14.6671    0.0000 </r>
       <r>   14.6671    0.0000 </r>
       <r>   14.6671    0.0000 </r>
       <r>   14.6671    0.0000 </r>
      </set>
     </set>
     <set comment="spin 2">
      <set comment="kpoint 1">
       <r>   -2.4190    1.0000 </r>
       <r>    2.8099    1.0000 </r>
       <r>    2.8100    1.0000 </r>
       <r>    5.4650    1.0000 </r>
       <r>    5.4652    1.0000 </r>
       <r>    5.4652    1.0000 </r>
       <r>    7.5535    0.0000 </r>
       <r>    7.5537    0.0000 </r>
       <r>    8.1926    0.0000 </r>
       <r>    8.1927    0.0000 </r>
       <r>    8.1928    0.0000 </r>
       <r>   16.1824    0.0000 </r>
       <r>   16.1824    0.0000 </r>
       <r>   16.1824    0.0000 </r>
       <r>   22.7195    0.0000 </r>
       <r>   22.7195    0.0000 </r>
      </set>
      <set comment="kpoint 2">
       <r>   -1.8430    1.0000 </r>
       <r>    2.9895    1.0000 </r>
       <r>    3.1018    1.0000 </r>
       <r>    5.4476    1.0000 </r>
       <r>    5.4477    1.0000 </r>
       <r>    5.6386    1.0000 </r>
       <r>    7.2192    0.0000 </r>
       <r>    7.6248    0.0000 </r>
       <r>    7.6249    0.0000 </r>
       <r>    7.6772    0.0000 </r>
       <r>    8.0009    0.0000 </r>
       <r>   13.6154    0.0000 </r>
       <r>   17.3621    0.0000 </r>
       <r>   17.3621    0.0000 </r>
       <r>   22.8384    0.0000 </r>
       <r>   24.2010    0.0000 </r>
      </set>
      <set comment="kpoint 3">
       <r>   -0.2509    1.0000 </r>
       <r>    3.0338    1.0000 </r>
       <r>    3.9209    1.0000 </r>
       <r>    5.5048    1.0000 </r>
       <r>    5.5050    1.0000 </r>
       <r>    6.1193    0.0001 </r>
       <r>    6.3081    0.0000 </r>
       <r>    6.6106    0.0000 </r>
       <r>    6.6107    0.0000 </r>
       <r>    7.4834    0.0000 </r>
       <r>    7.9711    0.0000 </r>
       <r>   10.2120    0.0000 </r>
       <r>   20.1687    0.0000 </r>
       <r>   20.1687    0.0000 </r>
       <r>   23.2577    0.0000 </r>
       <r>   25.1193    0.0000 </r>
      </set>
      <set comment="kpoint 4">
       <r>    1.8074    1.0000 </r>
       <r>    1.8074    1.0000 </r>
       <r>    5.0899    1.0000 </r>
       <r>    5.0899    1.0000 </r>
       <r>    5.8520    0.9999 </r>
       <r>    5.8520    0.9999 </r>
       <r>    5.8521    0.9999 </r>
       <r>    5.8521    0.9999 </r>
       <r>    6.7920    0.0000 </r>
       <r>    6.7920    0.0000 </r>
       <r>    8.4897    0.0000 </r>
       <r>    8.4897    0.0000 </r>
       <r>   23.7459    0.0000 </r>
       <r>   23.7459    0.0000 </r>
       <r>   23.7459    0.0000 </r>
       <r>   23.7459    0.0000 </r>
      </set>
      <set comment="kpoint 5">
       <r>   -1.2937    1.0000 </r>
       <r>    3.2349    1.0000 </r>
       <r>    3.2866    1.0000 </r>
       <r>    5.1183    1.0000 </r>
       <r>    5.3467    1.0000 </r>
       <r>    6.1166    0.0001 </r>
       <r>    6.8250    0.0000 </r>
       <r>    7.1264    0.0000 </r>
       <r>    7.2674    0.0000 </r>
       <r>    7.5879    0.0000 </r>
       <r>    8.2684    0.0000 </r>
       <r>   13.8689    0.0000 </r>
       <r>   15.2969    0.0000 </r>
       <r>   18.3215    0.0000 </r>
       <r>   23.5295    0.0000 </r>
       <r>   26.1218    0.0000 </r>
      </set>
      <set comment="kpoint 6">
       <r>    0.1972    1.0000 </r>
       <r>    3.1996    1.0000 </r>
       <r>    3.9887    1.0000 </r>
       <r>    4.9516    1.0000 </r>
       <r>    5.1880    1.0000 </r>
       <r>    5.8285    1.0000 </r>
       <r>    6.5301    0.0000 </r>
       <r>    6.7829    0.0000 </r>
       <r>    6.8144    0.0000 </r>
       <r>    7.8643    0.0000 </r>
       <r>    8.0630    0.0000 </r>
       <r>   10.6642    0.0000 </r>
       <r>   16.9893    0.0000 </r>
       <r>   20.8184    0.0000 </r>
       <r>   22.6633    0.0000 </r>
       <r>   23.9787    0.0000 </r>
      </set>
      <set comment="kpoint 7">
       <r>    2.0470    1.0000 </r>
       <r>    2.0470    1.0000 </r>
       <r>    4.7966    1.0000 </r>
       <r>    4.7966    1.0000 </r>
       <r>    5.1646    1.0000 </r>
       <r>    5.1646    1.0000 </r>
       <r>    6.4852    0.0000 </r>
       <r>    6.4852    0.0000 </r>
       <r>    7.4861    0.0000 </r>
       <r>    7.4861    0.0000 </r>
       <r>    8.5213    0.0000 </r>
       <r>    8.5213    0.0000 </r>
       <r>   19.6107    0.0000 </r>
       <r>   19.6107    0.0000 </r>
       <r>   24.2327    0.0000 </r>
       <r>   24.2327    0.0000 </r>
      </set>
      <set comment="kpoint 8">
       <r>    1.2565    1.0000 </r>
       <r>    2.9157    1.0000 </r>
       <r>    4.4713    1.0000 </r>
       <r>    4.7104    1.0000 </r>
       <r>    4.9240    1.0000 </r>
       <r>    5.1968    1.0000 </r>
       <r>    6.7377    0.0000 </r>
       <r>    7.2791    0.0000 </r>
       <r>    7.6115    0.0000 </r>
       <r>    7.7160    0.0000 </r>
       <r>    8.4215    0.0000 </r>
       <r>   10.3880    0.0000 </r>
       <r>   14.7736    0.0000 </r>
       <r>   18.9122    0.0000 </r>
       <r>   22.7002    0.0000 </r>
       <r>   24.1161    0.0000 </r>
      </set>
      <set comment="kpoint 9">
       <r>    2.2347    1.0000 </r>
       <r>    2.2347    1.0000 </r>
       <r>    4.4385    1.0000 </r>
       <r>    4.4385    1.0000 </r>
       <r>    5.4172    1.0000 </r>
       <r>    5.4172    1.0000 </r>
       <r>    7.1648    0.0000 </r>
       <r>    7.1648    0.0000 </r>
       <r>    8.2235    0.0000 </r>
       <r>    8.2235    0.0000 </r>
       <r>    8.3889    0.0000 </r>
       <r>    8.3889    0.0000 </r>
       <r>   16.0907    0.0000 </r>
       <r>   16.0907    0.0000 </r>
       <r>   24.6385    0.0000 </r>
       <r>   24.6385    0.0000 </r>
      </set>
      <set comment="kpoint 10">
       <r>    2.1960    1.0000 </r>
       <r>    2.1960    1.0000 </r>
       <r>    4.1680    1.0000 </r>
       <r>    4.1680    1.0000 </r>
       <r>    6.5329    0.0000 </r>
       <r>    6.5329    0.0000 </r>
       <r>    7.4037    0.0000 </r>
       <r>    7.4037    0.0000 </r>
       <r>    7.8133    0.0000 </r>
       <r>    7.8133    0.0000 </r>
       <r>    8.4989    0.0000 </r>
       <r>    8.4989    0.0000 </r>
       <r>   14.7083    0.0000 </r>
       <r>   14.7083    0.0000 </r>
       <r>   24.4135    0.0000 </r>
       <r>   24.4135    0.0000 </r>
      </set>
      <set comment="kpoint 11">
       <r>   -0.7620    1.0000 </r>
       <r>    3.4763    1.0000 </r>
       <r>    3.4764    1.0000 </r>
       <r>    5.0064    1.0000 </r>
       <r>    5.0065    1.0000 </r>
       <r>    5.8312    1.0000 </r>
       <r>    6.6099    0.0000 </r>
       <r>    7.4381    0.0000 </r>
       <r>    7.4383    0.0000 </r>
       <r>    7.7510    0.0000 </r>
       <r>    7.7511    0.0000 </r>
       <r>   14.8572    0.0000 </r>
       <r>   14.8572    0.0000 </r>
       <r>   16.3870    0.0000 </r>
       <r>   25.9338    0.0000 </r>
       <r>   25.9338    0.0000 </r>
      </set>
      <set comment="kpoint 12">
       <r>    0.6569    1.0000 </r>
       <r>    3.5005    1.0000 </r>
       <r>    3.9489    1.0000 </r>
       <r>    4.7572    1.0000 </r>
       <r>    4.7908    1.0000 </r>
       <r>    5.1402    1.0000 </r>
       <r>    6.9869    0.0000 </r>
       <r>    7.0547    0.0000 </r>
       <r>    7.3836    0.0000 </r>
       <r>    7.8142    0.0000 </r>
       <r>    7.8700    0.0000 </r>
       <r>   11.3471    0.0000 </r>
       <r>   17.0200    0.0000 </r>
       <r>   17.7745    0.0000 </r>
       <r>   22.5134    0.0000 </r>
       <r>   23.4956    0.0000 </r>
      </set>
      <set comment="kpoint 13">
       <r>    2.3559    1.0000 </r>
       <r>    2.3559    1.0000 </r>
       <r>    4.4323    1.0000 </r>
       <r>    4.4323    1.0000 </r>
       <r>    4.9912    1.0000 </r>
       <r>    4.9912    1.0000 </r>
       <r>    6.7464    0.0000 </r>
       <r>    6.7464    0.0000 </r>
       <r>    7.7281    0.0000 </r>
       <r>    7.7281    0.0000 </r>
       <r>    8.8977    0.0000 </r>
       <r>    8.8977    0.0000 </r>
       <r>   19.6013    0.0000 </r>
       <r>   19.6013    0.0000 </r>
       <r>   20.2489    0.0000 </r>
       <r>   20.2489    0.0000 </r>
      </set>
      <set comment="kpoint 14">
       <r>    1.7318    1.0000 </r>
       <r>    3.2785    1.0000 </r>
       <r>    4.3468    1.0000 </r>
       <r>    4.5084    1.0000 </r>
       <r>    4.5683    1.0000 </r>
       <r>    4.6764    1.0000 </r>
       <r>    7.1112    0.0000 </r>
       <r>    7.3916    0.0000 </r>
       <r>    7.7118    0.0000 </r>
       <r>    7.9362    0.0000 </r>
       <r>    8.3796    0.0000 </r>
       <r>   11.5648    0.0000 </r>
       <r>   14.8001    0.0000 </r>
       <r>   18.7557    0.0000 </r>
       <r>   19.1609    0.0000 </r>
       <r>   23.2640    0.0000 </r>
      </set>
      <set comment="kpoint 15">
       <r>    2.6438    1.0000 </r>
       <r>    2.6438    1.0000 </r>
       <r>    4.2565    1.0000 </r>
       <r>    4.2565    1.0000 </r>
       <r>    4.9665    1.0000 </r>
       <r>    4.9665    1.0000 </r>
       <r>    7.2866    0.0000 </r>
       <r>    7.2866    0.0000 </r>
       <r>    7.8575    0.0000 </r>
       <r>    7.8575    0.0000 </r>
       <r>    9.6368    0.0000 </r>
       <r>    9.6368    0.0000 </r>
       <r>   16.2555    0.0000 </r>
       <r>   16.2555    0.0000 </r>
       <r>   20.9139    0.0000 </r>
       <r>   20.9139    0.0000 </r>
      </set>
      <set comment="kpoint 16">
       <r>    2.6024    1.0000 </r>
       <r>    2.6024    1.0000 </r>
       <r>    4.0730    1.0000 </r>
       <r>    4.0730    1.0000 </r>
       <r>    5.5768    1.0000 </r>
       <r>    5.5768    1.0000 </r>
       <r>    7.5017    0.0000 </r>
       <r>    7.5017    0.0000 </r>
       <r>    7.8253    0.0000 </r>
       <r>    7.8253    0.0000 </r>
       <r>    9.9643    0.0000 </r>
       <r>    9.9643    0.0000 </r>
       <r>   14.7254    0.0000 </r>
       <r>   14.7254    0.0000 </r>
       <r>   22.1919    0.0000 </r>
       <r>   22.1919    0.0000 </r>
      </set>
      <set comment="kpoint 17">
       <r>    2.8325    1.0000 </r>
       <r>    3.6856    1.0000 </r>
       <r>    4.1197    1.0000 </r>
       <r>    4.1198    1.0000 </r>
       <r>    4.2522    1.0000 </r>
       <r>    4.2523    1.0000 </r>
       <r>    7.5993    0.0000 </r>
       <r>    7.5995    0.0000 </r>
       <r>    7.6723    0.0000 </r>
       <r>    7.6725    0.0000 </r>
       <r>    9.6905    0.0000 </r>
       <r>   13.8266    0.0000 </r>
       <r>   13.8267    0.0000 </r>
       <r>   16.3622    0.0000 </r>
       <r>   19.7717    0.0000 </r>
       <r>   19.7717    0.0000 </r>
      </set>
      <set comment="kpoint 18">
       <r>    3.4009    1.0000 </r>
       <r>    3.4009    1.0000 </r>
       <r>    4.0508    1.0000 </r>
       <r>    4.0508    1.0000 </r>
       <r>    4.3760    1.0000 </r>
       <r>    4.3760    1.0000 </r>
       <r>    7.5946    0.0000 </r>
       <r>    7.5946    0.0000 </r>
       <r>    7.8104    0.0000 </r>
       <r>    7.8104    0.0000 </r>
       <r>   11.3345    0.0000 </r>
       <r>   11.3345    0.0000 </r>
       <r>   16.5918    0.0000 </r>
       <r>   16.5918    0.0000 </r>
       <r>   17.6340    0.0000 </r>
       <r>   17.6340    0.0000 </r>
      </set>
      <set comment="kpoint 19">
       <r>    3.5047    1.0000 </r>
       <r>    3.5047    1.0000 </r>
       <r>    3.9269    1.0000 </r>
       <r>    3.9269    1.0000 </r>
       <r>    4.5455    1.0000 </r>
       <r>    4.5455    1.0000 </r>
       <r>    7.7261    0.0000 </r>
       <r>    7.7261    0.0000 </r>
       <r>    7.8494    0.0000 </r>
       <r>    7.8494    0.0000 </r>
       <r>   12.5080    0.0000 </r>
       <r>   12.5080    0.0000 </r>
       <r>   14.9597    0.0000 </r>
       <r>   14.9597    0.0000 </r>
       <r>   18.7802    0.0000 </r>
       <r>   18.7802    0.0000 </r>
      </set>
      <set comment="kpoint 20">
       <r>    4.0117    1.0000 </r>
       <r>    4.0117    1.0000 </r>
       <r>    4.0119    1.0000 </r>
       <r>    4.0119    1.0000 </r>
       <r>    4.0119    1.0000 </r>
       <r>    4.0119    1.0000 </r>
       <r>    7.8612    0.0000 </r>
       <r>    7.8612    0.0000 </r>
       <r>    7.8614    0.0000 </r>
       <r>    7.8614    0.0000 </r>
       <r>   15.4901    0.0000 </r>
       <r>   15.4901    0.0000 </r>
       <r>   15.4901    0.0000 </r>
       <r>   15.4901    0.0000 </r>
       <r>   15.4901    0.0000 </r>
       <r>   15.4901    0.0000 </r>
      </set>
     </set>
    </set>
   </array>
  </eigenvalues>
  <separator name="orbital magnetization" >
   <v name="MAGDIPOLOUT">      0.00000000      0.00000000      0.00000000</v>
  </separator>
  <dos>
   <i name="efermi">      5.98840242 </i>
   <total>
    <array>
     <dimension dim="1">gridpoints</dimension>
     <dimension dim="2">spin</dimension>
     <field>energy</field>
     <field>total</field>
     <field>integrated</field>
     <set>
      <set comment="spin 1">
       <r>    -3.9771     0.0000     0.0000 </r>
       <r>    -3.8720     0.0000     0.0000 </r>
       <r>    -3.7669     0.0000     0.0000 </r>
       <r>    -3.6618     0.0000     0.0000 </r>
       <r>    -3.5567     0.0000     0.0000 </r>
       <r>    -3.4516     0.0000     0.0000 </r>
       <r>    -3.3465     0.0000     0.0000 </r>
       <r>    -3.2413     0.0000     0.0000 </r>
       <r>    -3.1362     0.0000     0.0000 </r>
       <r>    -3.0311     0.0000     0.0000 </r>
       <r>    -2.9260     0.0000     0.0000 </r>
       <r>    -2.8209     0.0000     0.0000 </r>
       <r>    -2.7158     0.0000     0.0000 </r>
       <r>    -2.6107     0.0013     0.0001 </r>
       <r>    -2.5056     0.0366     0.0040 </r>
       <r>    -2.4005     0.0062     0.0046 </r>
       <r>    -2.2954     0.0000     0.0046 </r>
       <r>    -2.1903     0.0000     0.0046 </r>
       <r>    -2.0852     0.0002     0.0046 </r>
       <r>    -1.9801     0.1080     0.0160 </r>
       <r>    -1.8750     0.1553     0.0323 </r>
       <r>    -1.7698     0.0008     0.0324 </r>
       <r>    -1.6647     0.0000     0.0324 </r>
       <r>    -1.5596     0.0001     0.0324 </r>
       <r>    -1.4545     0.1437     0.0475 </r>
       <r>    -1.3494     0.3800     0.0875 </r>
       <r>    -1.2443     0.0048     0.0880 </r>
       <r>    -1.1392     0.0000     0.0880 </r>
       <r>    -1.0341     0.0001     0.0880 </r>
       <r>    -0.9290     0.1122     0.0998 </r>
       <r>    -0.8239     0.2379     0.1248 </r>
       <r>    -0.7188     0.0022     0.1250 </r>
       <r>    -0.6137     0.0000     0.1250 </r>
       <r>    -0.5086     0.0038     0.1254 </r>
       <r>    -0.4035     0.2037     0.1468 </r>
       <r>    -0.2983     0.0567     0.1528 </r>
       <r>    -0.1932     0.0000     0.1528 </r>
       <r>    -0.0881     0.0811     0.1613 </r>
       <r>     0.0170     0.9114     0.2571 </r>
       <r>     0.1221     0.0646     0.2639 </r>
       <r>     0.2272     0.0000     0.2639 </r>
       <r>     0.3323     0.0471     0.2688 </r>
       <r>     0.4374     0.9027     0.3637 </r>
       <r>     0.5425     0.1074     0.3750 </r>
       <r>     0.6476     0.0532     0.3806 </r>
       <r>     0.7527     0.4516     0.4281 </r>
       <r>     0.8578     0.0238     0.4306 </r>
       <r>     0.9629     0.0623     0.4371 </r>
       <r>     1.0680     0.2706     0.4655 </r>
       <r>     1.1732     1.3835     0.6110 </r>
       <r>     1.2783     1.0952     0.7261 </r>
       <r>     1.3834     1.5977     0.8940 </r>
       <r>     1.4885     1.1745     1.0175 </r>
       <r>     1.5936     3.0529     1.3383 </r>
       <r>     1.6987     1.1972     1.4642 </r>
       <r>     1.8038     1.6589     1.6385 </r>
       <r>     1.9089     1.0491     1.7488 </r>
       <r>     2.0140     0.3594     1.7866 </r>
       <r>     2.1191     0.8756     1.8786 </r>
       <r>     2.2242     3.1629     2.2111 </r>
       <r>     2.3293     1.4580     2.3643 </r>
       <r>     2.4344     0.0710     2.3718 </r>
       <r>     2.5396     1.0224     2.4792 </r>
       <r>     2.6447     2.4723     2.7391 </r>
       <r>     2.7498     3.7221     3.1303 </r>
       <r>     2.8549     2.4459     3.3874 </r>
       <r>     2.9600     1.8645     3.5834 </r>
       <r>     3.0651     2.2180     3.8165 </r>
       <r>     3.1702     2.1990     4.0476 </r>
       <r>     3.2753     2.7860     4.3405 </r>
       <r>     3.3804     2.2463     4.5766 </r>
       <r>     3.4855     3.7827     4.9741 </r>
       <r>     3.5906     1.1638     5.0965 </r>
       <r>     3.6957     1.3942     5.2430 </r>
       <r>     3.8008     2.1215     5.4660 </r>
       <r>     3.9059     0.3722     5.5051 </r>
       <r>     4.0111     1.1342     5.6243 </r>
       <r>     4.1162     1.8243     5.8161 </r>
       <r>     4.2213     0.8220     5.9025 </r>
       <r>     4.3264     0.6467     5.9704 </r>
       <r>     4.4315     0.4935     6.0223 </r>
       <r>     4.5366     1.9548     6.2278 </r>
       <r>     4.6417     3.4280     6.5881 </r>
       <r>     4.7468     1.5131     6.7471 </r>
       <r>     4.8519     3.4662     7.1114 </r>
       <r>     4.9570     6.3877     7.7828 </r>
       <r>     5.0621     5.7832     8.3907 </r>
       <r>     5.1672     3.8019     8.7903 </r>
       <r>     5.2723     2.0206     9.0027 </r>
       <r>     5.3774     1.7021     9.1816 </r>
       <r>     5.4826     2.2545     9.4185 </r>
       <r>     5.5877     1.8897     9.6172 </r>
       <r>     5.6928     1.0311     9.7255 </r>
       <r>     5.7979     2.3135     9.9687 </r>
       <r>     5.9030     0.5925    10.0310 </r>
       <r>     6.0081     0.7396    10.1087 </r>
       <r>     6.1132     0.7712    10.1898 </r>
       <r>     6.2183     1.5611    10.3539 </r>
       <r>     6.3234     0.6774    10.4251 </r>
       <r>     6.4285     1.3508    10.5670 </r>
       <r>     6.5336     0.4993    10.6195 </r>
       <r>     6.6387     1.7817    10.8068 </r>
       <r>     6.7438     0.1204    10.8194 </r>
       <r>     6.8489     0.0000    10.8194 </r>
       <r>     6.9541     0.0087    10.8204 </r>
       <r>     7.0592     0.7490    10.8991 </r>
       <r>     7.1643     0.2992    10.9305 </r>
       <r>     7.2694     0.0002    10.9306 </r>
       <r>     7.3745     0.0000    10.9306 </r>
       <r>     7.4796     0.0000    10.9306 </r>
       <r>     7.5847     0.0000    10.9306 </r>
       <r>     7.6898     0.0000    10.9306 </r>
       <r>     7.7949     0.0000    10.9306 </r>
       <r>     7.9000     0.0000    10.9306 </r>
       <r>     8.0051     0.0089    10.9315 </r>
       <r>     8.1102     1.1855    11.0561 </r>
       <r>     8.2153     1.2667    11.1892 </r>
       <r>     8.3205     0.0056    11.1898 </r>
       <r>     8.4256     0.0000    11.1898 </r>
       <r>     8.5307     0.0000    11.1898 </r>
       <r>     8.6358     0.0007    11.1899 </r>
       <r>     8.7409     0.2599    11.2172 </r>
       <r>     8.8460     0.2817    11.2468 </r>
       <r>     8.9511     0.2282    11.2708 </r>
       <r>     9.0562     0.0222    11.2731 </r>
       <r>     9.1613     0.0039    11.2736 </r>
       <r>     9.2664     0.3687    11.3123 </r>
       <r>     9.3715     0.3362    11.3476 </r>
       <r>     9.4766     0.8540    11.4374 </r>
       <r>     9.5817     0.0229    11.4398 </r>
       <r>     9.6868     0.0000    11.4398 </r>
       <r>     9.7920     0.0000    11.4398 </r>
       <r>     9.8971     0.0000    11.4398 </r>
       <r>    10.0022     0.0684    11.4470 </r>
       <r>    10.1073     1.5640    11.6114 </r>
       <r>    10.2124     0.4812    11.6620 </r>
       <r>    10.3175     0.0015    11.6621 </r>
       <r>    10.4226     0.4621    11.7107 </r>
       <r>    10.5277     0.5915    11.7729 </r>
       <r>    10.6328     0.0026    11.7731 </r>
       <r>    10.7379     0.0000    11.7731 </r>
       <r>    10.8430     0.0000    11.7731 </r>
       <r>    10.9481     0.0000    11.7731 </r>
       <r>    11.0532     0.0000    11.7731 </r>
       <r>    11.1583     0.0000    11.7731 </r>
       <r>    11.2635     0.0000    11.7731 </r>
       <r>    11.3686     0.0000    11.7732 </r>
       <r>    11.4737     0.0946    11.7831 </r>
       <r>    11.5788     0.4234    11.8276 </r>
       <r>    11.6839     0.0106    11.8287 </r>
       <r>    11.7890     0.0000    11.8287 </r>
       <r>    11.8941     0.0000    11.8287 </r>
       <r>    11.9992     0.0000    11.8287 </r>
       <r>    12.1043     0.0000    11.8287 </r>
[...]
       </set>
       <set comment="band 12">
        <r>  0.0196  0.0338  0.0045  0.0496  0.0359  0.1439  0.0073  0.1083  0.0622 </r>
        <r>  0.0185  0.0319  0.0043  0.0525  0.0381  0.1358  0.0068  0.1148  0.0587 </r>
       </set>
       <set comment="band 13">
        <r>  0.0174  0.0083  0.0017  0.0264  0.3051  0.0005  0.0066  0.0059  0.0006 </r>
        <r>  0.2382  0.1129  0.0231  0.0019  0.0223  0.0071  0.0905  0.0004  0.0084 </r>
       </set>
       <set comment="band 14">
        <r>  0.2382  0.1129  0.0231  0.0019  0.0223  0.0071  0.0905  0.0004  0.0084 </r>
        <r>  0.0174  0.0083  0.0017  0.0264  0.3051  0.0005  0.0066  0.0059  0.0006 </r>
       </set>
       <set comment="band 15">
        <r>  0.0942  0.0308  0.1503  0.0176  0.0001  0.0525  0.0411  0.0369  0.0062 </r>
        <r>  0.0244  0.0080  0.0389  0.0679  0.0002  0.0136  0.0106  0.1425  0.0016 </r>
       </set>
       <set comment="band 16">
        <r>  0.0244  0.0080  0.0389  0.0679  0.0002  0.0136  0.0106  0.1425  0.0016 </r>
        <r>  0.0942  0.0308  0.1503  0.0176  0.0001  0.0525  0.0411  0.0369  0.0062 </r>
       </set>
      </set>
      <set comment="kpoint 16">
       <set comment="band 1">
        <r>  0.0868  0.0000  0.0213  0.0000  0.1990  0.0000  0.1107  0.0000  0.0000 </r>
        <r>  0.0543  0.0000  0.0133  0.0000  0.3177  0.0000  0.0693  0.0000  0.0000 </r>
       </set>
       <set comment="band 2">
        <r>  0.0543  0.0000  0.0133  0.0000  0.3177  0.0000  0.0693  0.0000  0.0000 </r>
        <r>  0.0868  0.0000  0.0213  0.0000  0.1990  0.0000  0.1107  0.0000  0.0000 </r>
       </set>
       <set comment="band 3">
        <r>  0.0000  0.0013  0.0000  0.0075  0.0000  0.0689  0.0000  0.3975  0.0000 </r>
        <r>  0.0000  0.0075  0.0000  0.0013  0.0000  0.3975  0.0000  0.0689  0.0000 </r>
       </set>
       <set comment="band 4">
        <r>  0.0000  0.0075  0.0000  0.0013  0.0000  0.3975  0.0000  0.0689  0.0000 </r>
        <r>  0.0000  0.0013  0.0000  0.0075  0.0000  0.0689  0.0000  0.3975  0.0000 </r>
       </set>
       <set comment="band 5">
        <r>  0.0000  0.0278  0.0000  0.1907  0.0000  0.0237  0.0000  0.1621  0.0000 </r>
        <r>  0.0000  0.1907  0.0000  0.0278  0.0000  0.1621  0.0000  0.0237  0.0000 </r>
       </set>
       <set comment="band 6">
        <r>  0.0000  0.1907  0.0000  0.0278  0.0000  0.1621  0.0000  0.0237  0.0000 </r>
        <r>  0.0000  0.0278  0.0000  0.1907  0.0000  0.0237  0.0000  0.1621  0.0000 </r>
       </set>
       <set comment="band 7">
        <r>  0.0041  0.0000  0.0002  0.0000  0.0827  0.0000  0.4805  0.0000  0.0000 </r>
        <r>  0.0022  0.0000  0.0001  0.0000  0.1554  0.0000  0.2559  0.0000  0.0000 </r>
       </set>
       <set comment="band 8">
        <r>  0.0022  0.0000  0.0001  0.0000  0.1554  0.0000  0.2559  0.0000  0.0000 </r>
        <r>  0.0041  0.0000  0.0002  0.0000  0.0827  0.0000  0.4805  0.0000  0.0000 </r>
       </set>
       <set comment="band 9">
        <r>  0.0000  0.0000  0.0000  0.0000  0.0000  0.0000  0.0000  0.0000  0.7549 </r>
        <r>  0.0000  0.0000  0.0000  0.0000  0.0000  0.0000  0.0000  0.0000  0.2316 </r>
       </set>
       <set comment="band 10">
        <r>  0.0000  0.0000  0.0000  0.0000  0.0000  0.0000  0.0000  0.0000  0.2316 </r>
        <r>  0.0000  0.0000  0.0000  0.0000  0.0000  0.0000  0.0000  0.0000  0.7549 </r>
       </set>
       <set comment="band 11">
        <r>  0.0000  0.1225  0.0000  0.0014  0.0000  0.3214  0.0000  0.0036  0.0000 </r>
        <r>  0.0000  0.0014  0.0000  0.1225  0.0000  0.0036  0.0000  0.3214  0.0000 </r>
       </set>
       <set comment="band 12">
        <r>  0.0000  0.0014  0.0000  0.1225  0.0000  0.0036  0.0000  0.3214  0.0000 </r>
        <r>  0.0000  0.1225  0.0000  0.0014  0.0000  0.3214  0.0000  0.0036  0.0000 </r>
       </set>
       <set comment="band 13">
        <r>  0.0550  0.0000  0.0037  0.0000  0.3548  0.0000  0.0140  0.0000  0.0000 </r>
        <r>  0.3260  0.0000  0.0222  0.0000  0.0598  0.0000  0.0829  0.0000  0.0000 </r>
       </set>
       <set comment="band 14">
        <r>  0.3260  0.0000  0.0222  0.0000  0.0598  0.0000  0.0829  0.0000  0.0000 </r>
        <r>  0.0550  0.0000  0.0037  0.0000  0.3548  0.0000  0.0140  0.0000  0.0000 </r>
       </set>
       <set comment="band 15">
        <r>  0.0000  0.1361  0.0000  0.0031  0.0000  0.1566  0.0000  0.0035  0.0000 </r>
        <r>  0.0000  0.0031  0.0000  0.1361  0.0000  0.0035  0.0000  0.1566  0.0000 </r>
       </set>
       <set comment="band 16">
        <r>  0.0000  0.0031  0.0000  0.1361  0.0000  0.0035  0.0000  0.1566  0.0000 </r>
        <r>  0.0000  0.1361  0.0000  0.0031  0.0000  0.1566  0.0000  0.0035  0.0000 </r>
       </set>
      </set>
      <set comment="kpoint 17">
       <set comment="band 1">
        <r>  0.1296  0.0442  0.0442  0.0442  0.0445  0.0445  0.0000  0.0445  0.0000 </r>
        <r>  0.1296  0.0442  0.0442  0.0442  0.0445  0.0445  0.0000  0.0445  0.0000 </r>
       </set>
       <set comment="band 2">
        <r>  0.0329  0.0010  0.0010  0.0010  0.1427  0.1427  0.0000  0.1427  0.0000 </r>
        <r>  0.0329  0.0010  0.0010  0.0010  0.1427  0.1427  0.0000  0.1427  0.0000 </r>
       </set>
       <set comment="band 3">
        <r>  0.0000  0.0044  0.0188  0.0050  0.2711  0.0725  0.0291  0.0633  0.0000 </r>
        <r>  0.0000  0.0044  0.0188  0.0050  0.2711  0.0725  0.0291  0.0633  0.0000 </r>
       </set>
       <set comment="band 4">
        <r>  0.0000  0.0144  0.0000  0.0138  0.0001  0.1988  0.0000  0.2080  0.0291 </r>
        <r>  0.0000  0.0144  0.0000  0.0138  0.0001  0.1988  0.0000  0.2080  0.0291 </r>
       </set>
       <set comment="band 5">
        <r>  0.0000  0.0181  0.0655  0.0148  0.1375  0.0310  0.1276  0.0380  0.0001 </r>
        <r>  0.0000  0.0181  0.0655  0.0148  0.1375  0.0310  0.1276  0.0380  0.0001 </r>
       </set>
       <set comment="band 6">
        <r>  0.0000  0.0475  0.0001  0.0508  0.0001  0.1067  0.0001  0.0996  0.1276 </r>
        <r>  0.0000  0.0475  0.0001  0.0508  0.0001  0.1067  0.0001  0.0996  0.1276 </r>
       </set>
       <set comment="band 7">
        <r>  0.0000  0.0006  0.0020  0.0004  0.1145  0.0228  0.3132  0.0351  0.0012 </r>
        <r>  0.0000  0.0006  0.0020  0.0004  0.1145  0.0228  0.3132  0.0351  0.0012 </r>
       </set>
       <set comment="band 8">
        <r>  0.0000  0.0014  0.0000  0.0016  0.0004  0.0921  0.0012  0.0799  0.3132 </r>
        <r>  0.0000  0.0014  0.0000  0.0016  0.0004  0.0921  0.0012  0.0799  0.3132 </r>
       </set>
       <set comment="band 9">
        <r>  0.0000  0.0000  0.0000  0.0000  0.0247  0.0045  0.4499  0.0081  0.0033 </r>
        <r>  0.0000  0.0000  0.0000  0.0000  0.0247  0.0045  0.4499  0.0081  0.0033 </r>
       </set>
       <set comment="band 10">
        <r>  0.0000  0.0000  0.0000  0.0000  0.0002  0.0204  0.0033  0.0168  0.4499 </r>
        <r>  0.0000  0.0000  0.0000  0.0000  0.0002  0.0204  0.0033  0.0168  0.4499 </r>
       </set>
       <set comment="band 11">
        <r>  0.0256  0.0209  0.0209  0.0209  0.1273  0.1273  0.0000  0.1273  0.0000 </r>
        <r>  0.0256  0.0209  0.0209  0.0209  0.1273  0.1273  0.0000  0.1273  0.0000 </r>
       </set>
       <set comment="band 12">
        <r>  0.0000  0.0367  0.1288  0.0280  0.1116  0.0243  0.0699  0.0318  0.0001 </r>
        <r>  0.0000  0.0367  0.1288  0.0280  0.1116  0.0243  0.0699  0.0318  0.0001 </r>
       </set>
       <set comment="band 13">
        <r>  0.0000  0.0923  0.0002  0.1010  0.0002  0.0875  0.0001  0.0800  0.0699 </r>
        <r>  0.0000  0.0923  0.0002  0.1010  0.0002  0.0875  0.0001  0.0800  0.0699 </r>
       </set>
       <set comment="band 14">
        <r>  0.2857  0.0003  0.0003  0.0003  0.0444  0.0444  0.0000  0.0444  0.0000 </r>
        <r>  0.2857  0.0003  0.0003  0.0003  0.0444  0.0444  0.0000  0.0444  0.0000 </r>
       </set>
       <set comment="band 15">
        <r>  0.0000  0.0282  0.1049  0.0243  0.1325  0.0307  0.0325  0.0356  0.0000 </r>
        <r>  0.0000  0.0282  0.1049  0.0243  0.1325  0.0307  0.0325  0.0356  0.0000 </r>
       </set>
       <set comment="band 16">
        <r>  0.0000  0.0768  0.0000  0.0806  0.0001  0.1018  0.0000  0.0969  0.0325 </r>
        <r>  0.0000  0.0768  0.0000  0.0806  0.0001  0.1018  0.0000  0.0969  0.0325 </r>
       </set>
      </set>
      <set comment="kpoint 18">
       <set comment="band 1">
        <r>  0.0973  0.0433  0.0433  0.0001  0.0024  0.0454  0.0093  0.0024  0.0278 </r>
        <r>  0.0008  0.0003  0.0003  0.0176  0.2956  0.0004  0.0001  0.2955  0.0002 </r>
       </set>
       <set comment="band 2">
        <r>  0.0008  0.0003  0.0003  0.0176  0.2956  0.0004  0.0001  0.2955  0.0002 </r>
        <r>  0.0973  0.0433  0.0433  0.0001  0.0024  0.0454  0.0093  0.0024  0.0278 </r>
       </set>
       <set comment="band 3">
        <r>  0.0000  0.0430  0.0430  0.0000  0.0959  0.0000  0.0673  0.0959  0.0224 </r>
        <r>  0.0000  0.0180  0.0180  0.0000  0.2288  0.0000  0.0282  0.2288  0.0094 </r>
       </set>
       <set comment="band 4">
        <r>  0.0000  0.0180  0.0180  0.0000  0.2288  0.0000  0.0282  0.2288  0.0094 </r>
        <r>  0.0000  0.0430  0.0430  0.0000  0.0959  0.0000  0.0673  0.0959  0.0224 </r>
       </set>
       <set comment="band 5">
        <r>  0.0130  0.0156  0.0156  0.0211  0.0003  0.5634  0.0037  0.0003  0.0110 </r>
        <r>  0.0019  0.0023  0.0023  0.1428  0.0019  0.0833  0.0005  0.0019  0.0016 </r>
       </set>
       <set comment="band 6">
        <r>  0.0019  0.0023  0.0023  0.1428  0.0019  0.0833  0.0005  0.0019  0.0016 </r>
        <r>  0.0130  0.0156  0.0156  0.0211  0.0003  0.5634  0.0037  0.0003  0.0110 </r>
       </set>
       <set comment="band 7">
        <r>  0.0000  0.0002  0.0002  0.0000  0.0419  0.0000  0.3049  0.0418  0.1015 </r>
        <r>  0.0000  0.0002  0.0002  0.0000  0.0420  0.0000  0.3041  0.0420  0.1012 </r>
       </set>
       <set comment="band 8">
        <r>  0.0000  0.0002  0.0002  0.0000  0.0420  0.0000  0.3041  0.0420  0.1012 </r>
        <r>  0.0000  0.0002  0.0002  0.0000  0.0419  0.0000  0.3049  0.0418  0.1015 </r>
       </set>
       <set comment="band 9">
        <r>  0.0007  0.0001  0.0001  0.0004  0.0194  0.0093  0.0930  0.0194  0.2795 </r>
        <r>  0.0010  0.0001  0.0001  0.0003  0.0138  0.0131  0.1304  0.0139  0.3917 </r>
       </set>
       <set comment="band 10">
        <r>  0.0010  0.0001  0.0001  0.0003  0.0138  0.0131  0.1304  0.0139  0.3917 </r>
        <r>  0.0007  0.0001  0.0001  0.0004  0.0194  0.0093  0.0930  0.0194  0.2795 </r>
       </set>
       <set comment="band 11">
        <r>  0.0617  0.0479  0.0479  0.0037  0.0042  0.2397  0.0102  0.0042  0.0307 </r>
        <r>  0.0017  0.0013  0.0013  0.1306  0.1517  0.0067  0.0003  0.1517  0.0009 </r>
       </set>
       <set comment="band 12">
        <r>  0.0017  0.0013  0.0013  0.1306  0.1517  0.0067  0.0003  0.1517  0.0009 </r>
        <r>  0.0617  0.0479  0.0479  0.0037  0.0042  0.2397  0.0102  0.0042  0.0307 </r>
       </set>
       <set comment="band 13">
        <r>  0.0000  0.1501  0.1501  0.0000  0.0336  0.0000  0.0558  0.0336  0.0186 </r>
        <r>  0.0000  0.0325  0.0325  0.0000  0.1550  0.0000  0.0121  0.1550  0.0040 </r>
       </set>
       <set comment="band 14">
        <r>  0.0000  0.0325  0.0325  0.0000  0.1550  0.0000  0.0121  0.1550  0.0040 </r>
        <r>  0.0000  0.1501  0.1501  0.0000  0.0336  0.0000  0.0558  0.0336  0.0186 </r>
       </set>
       <set comment="band 15">
        <r>  0.0960  0.0013  0.0013  0.0995  0.0517  0.0264  0.0000  0.0517  0.0001 </r>
        <r>  0.3237  0.0043  0.0043  0.0295  0.0153  0.0889  0.0001  0.0153  0.0003 </r>
       </set>
       <set comment="band 16">
        <r>  0.3237  0.0043  0.0043  0.0295  0.0153  0.0889  0.0001  0.0153  0.0003 </r>
        <r>  0.0960  0.0013  0.0013  0.0995  0.0517  0.0264  0.0000  0.0517  0.0001 </r>
       </set>
      </set>
      <set comment="kpoint 19">
       <set comment="band 1">
        <r>  0.0492  0.0000  0.1001  0.0000  0.0651  0.0000  0.0690  0.0000  0.0000 </r>
        <r>  0.0055  0.0000  0.0112  0.0000  0.5798  0.0000  0.0077  0.0000  0.0000 </r>
       </set>
       <set comment="band 2">
        <r>  0.0055  0.0000  0.0112  0.0000  0.5798  0.0000  0.0077  0.0000  0.0000 </r>
        <r>  0.0492  0.0000  0.1001  0.0000  0.0651  0.0000  0.0690  0.0000  0.0000 </r>
       </set>
       <set comment="band 3">
        <r>  0.0000  0.0147  0.0000  0.0201  0.0000  0.1816  0.0000  0.2474  0.0000 </r>
        <r>  0.0000  0.0201  0.0000  0.0147  0.0000  0.2475  0.0000  0.1816  0.0000 </r>
       </set>
       <set comment="band 4">
        <r>  0.0000  0.0201  0.0000  0.0147  0.0000  0.2475  0.0000  0.1816  0.0000 </r>
        <r>  0.0000  0.0147  0.0000  0.0201  0.0000  0.1816  0.0000  0.2474  0.0000 </r>
       </set>
       <set comment="band 5">
        <r>  0.0000  0.1011  0.0000  0.0338  0.0000  0.2225  0.0000  0.0744  0.0000 </r>
        <r>  0.0000  0.0338  0.0000  0.1011  0.0000  0.0744  0.0000  0.2225  0.0000 </r>
       </set>
       <set comment="band 6">
        <r>  0.0000  0.0338  0.0000  0.1011  0.0000  0.0744  0.0000  0.2225  0.0000 </r>
        <r>  0.0000  0.1011  0.0000  0.0338  0.0000  0.2225  0.0000  0.0744  0.0000 </r>
       </set>
       <set comment="band 7">
        <r>  0.0000  0.0000  0.0000  0.0000  0.1028  0.0000  0.0251  0.0000  0.0000 </r>
        <r>  0.0009  0.0000  0.0003  0.0000  0.0030  0.0000  0.8527  0.0000  0.0000 </r>
       </set>
       <set comment="band 8">
        <r>  0.0009  0.0000  0.0003  0.0000  0.0030  0.0000  0.8527  0.0000  0.0000 </r>
        <r>  0.0000  0.0000  0.0000  0.0000  0.1028  0.0000  0.0251  0.0000  0.0000 </r>
       </set>
       <set comment="band 9">
        <r>  0.0000  0.0000  0.0000  0.0000  0.0000  0.0000  0.0000  0.0000  0.9606 </r>
        <r>  0.0000  0.0000  0.0000  0.0000  0.0000  0.0000  0.0000  0.0000  0.0271 </r>
       </set>
       <set comment="band 10">
        <r>  0.0000  0.0000  0.0000  0.0000  0.0000  0.0000  0.0000  0.0000  0.0271 </r>
        <r>  0.0000  0.0000  0.0000  0.0000  0.0000  0.0000  0.0000  0.0000  0.9606 </r>
       </set>
       <set comment="band 11">
        <r>  0.0000  0.1387  0.0000  0.0358  0.0000  0.2005  0.0000  0.0517  0.0000 </r>
        <r>  0.0000  0.0358  0.0000  0.1387  0.0000  0.0517  0.0000  0.2005  0.0000 </r>
       </set>
       <set comment="band 12">
        <r>  0.0000  0.0358  0.0000  0.1387  0.0000  0.0517  0.0000  0.2005  0.0000 </r>
        <r>  0.0000  0.1387  0.0000  0.0358  0.0000  0.2005  0.0000  0.0517  0.0000 </r>
       </set>
       <set comment="band 13">
        <r>  0.0464  0.0000  0.0219  0.0000  0.3391  0.0000  0.0072  0.0000  0.0000 </r>
        <r>  0.2409  0.0000  0.1135  0.0000  0.0654  0.0000  0.0373  0.0000  0.0000 </r>
       </set>
       <set comment="band 14">
        <r>  0.2409  0.0000  0.1135  0.0000  0.0654  0.0000  0.0373  0.0000  0.0000 </r>
        <r>  0.0464  0.0000  0.0219  0.0000  0.3391  0.0000  0.0072  0.0000  0.0000 </r>
       </set>
       <set comment="band 15">
        <r>  0.0000  0.1589  0.0000  0.0073  0.0000  0.2096  0.0000  0.0096  0.0000 </r>
        <r>  0.0000  0.0073  0.0000  0.1589  0.0000  0.0096  0.0000  0.2096  0.0000 </r>
       </set>
       <set comment="band 16">
        <r>  0.0000  0.0073  0.0000  0.1589  0.0000  0.0096  0.0000  0.2096  0.0000 </r>
        <r>  0.0000  0.1589  0.0000  0.0073  0.0000  0.2096  0.0000  0.0096  0.0000 </r>
       </set>
      </set>
      <set comment="kpoint 20">
       <set comment="band 1">
        <r>  0.0000  0.0000  0.0379  0.0000  0.5616  0.0000  0.0000  0.0000  0.0000 </r>
        <r>  0.0000  0.0000  0.1161  0.0000  0.1835  0.0000  0.0000  0.0000  0.0000 </r>
       </set>
       <set comment="band 2">
        <r>  0.0000  0.0000  0.1161  0.0000  0.1835  0.0000  0.0000  0.0000  0.0000 </r>
        <r>  0.0000  0.0000  0.0379  0.0000  0.5616  0.0000  0.0000  0.0000  0.0000 </r>
       </set>
       <set comment="band 3">
        <r>  0.0000  0.0000  0.0000  0.1490  0.0000  0.0243  0.0000  0.0000  0.0000 </r>
        <r>  0.0000  0.0000  0.0000  0.0050  0.0000  0.7207  0.0000  0.0000  0.0000 </r>
       </set>
       <set comment="band 4">
        <r>  0.0000  0.0000  0.0000  0.0050  0.0000  0.7207  0.0000  0.0000  0.0000 </r>
        <r>  0.0000  0.0000  0.0000  0.1490  0.0000  0.0243  0.0000  0.0000  0.0000 </r>
       </set>
       <set comment="band 5">
        <r>  0.0000  0.0087  0.0000  0.0000  0.0000  0.0000  0.0000  0.7028  0.0000 </r>
        <r>  0.0000  0.1453  0.0000  0.0000  0.0000  0.0000  0.0000  0.0423  0.0000 </r>
       </set>
       <set comment="band 6">
        <r>  0.0000  0.1453  0.0000  0.0000  0.0000  0.0000  0.0000  0.0423  0.0000 </r>
        <r>  0.0000  0.0087  0.0000  0.0000  0.0000  0.0000  0.0000  0.7028  0.0000 </r>
       </set>
       <set comment="band 7">
        <r>  0.0000  0.0000  0.0000  0.0000  0.0000  0.0000  0.9706  0.0000  0.0082 </r>
        <r>  0.0000  0.0000  0.0000  0.0000  0.0000  0.0000  0.0094  0.0000  0.0001 </r>
       </set>
       <set comment="band 8">
        <r>  0.0000  0.0000  0.0000  0.0000  0.0000  0.0000  0.0094  0.0000  0.0001 </r>
        <r>  0.0000  0.0000  0.0000  0.0000  0.0000  0.0000  0.9706  0.0000  0.0082 </r>
       </set>
       <set comment="band 9">
        <r>  0.0000  0.0000  0.0000  0.0000  0.0000  0.0000  0.0080  0.0000  0.9499 </r>
        <r>  0.0000  0.0000  0.0000  0.0000  0.0000  0.0000  0.0003  0.0000  0.0302 </r>
       </set>
       <set comment="band 10">
        <r>  0.0000  0.0000  0.0000  0.0000  0.0000  0.0000  0.0003  0.0000  0.0302 </r>
        <r>  0.0000  0.0000  0.0000  0.0000  0.0000  0.0000  0.0080  0.0000  0.9499 </r>
       </set>
       <set comment="band 11">
        <r>  0.0000  0.0000  0.0498  0.0000  0.3975  0.0000  0.0000  0.0000  0.0000 </r>
        <r>  0.0000  0.0000  0.3155  0.0000  0.0627  0.0000  0.0000  0.0000  0.0000 </r>
       </set>
       <set comment="band 12">
        <r>  0.0000  0.0000  0.3155  0.0000  0.0627  0.0000  0.0000  0.0000  0.0000 </r>
        <r>  0.0000  0.0000  0.0498  0.0000  0.3975  0.0000  0.0000  0.0000  0.0000 </r>
       </set>
       <set comment="band 13">
        <r>  0.0000  0.0000  0.0000  0.3620  0.0000  0.0040  0.0000  0.0000  0.0000 </r>
        <r>  0.0000  0.0000  0.0000  0.0032  0.0000  0.4563  0.0000  0.0000  0.0000 </r>
       </set>
       <set comment="band 14">
        <r>  0.0000  0.0000  0.0000  0.0032  0.0000  0.4563  0.0000  0.0000  0.0000 </r>
        <r>  0.0000  0.0000  0.0000  0.3620  0.0000  0.0040  0.0000  0.0000  0.0000 </r>
       </set>
       <set comment="band 15">
        <r>  0.0000  0.1284  0.0000  0.0000  0.0000  0.0000  0.0000  0.2985  0.0000 </r>
        <r>  0.0000  0.2368  0.0000  0.0000  0.0000  0.0000  0.0000  0.1618  0.0000 </r>
       </set>
       <set comment="band 16">
        <r>  0.0000  0.2368  0.0000  0.0000  0.0000  0.0000  0.0000  0.1618  0.0000 </r>
        <r>  0.0000  0.1284  0.0000  0.0000  0.0000  0.0000  0.0000  0.2985  0.0000 </r>
       </set>
      </set>
     </set>
    </set>
   </array>
  </projected>
 </calculation>
 <structure name="finalpos" >
  <crystal>
   <varray name="basis" >
    <v>       2.82269731      -0.00000000      -0.00000000 </v>
    <v>      -0.00000000       2.82269731      -0.00000000 </v>
    <v>       0.00000000      -0.00000000       2.82269731 </v>
   </varray>
   <i name="volume">     22.49017990 </i>
   <varray name="rec_basis" >
    <v>       0.35427107       0.00000000      -0.00000000 </v>
    <v>       0.00000000       0.35427107       0.00000000 </v>
    <v>       0.00000000       0.00000000       0.35427107 </v>
   </varray>
  </crystal>
  <varray name="positions" >
   <v>       0.00000000       0.00000000       0.00000000 </v>
   <v>       0.50000000       0.50000000       0.50000000 </v>
  </varray>
 </structure>
</modeling>
