-16.49876714
 mpi-ranks, with    1 threads/rank, on    1 nodes
 distrk:  each k-point on    4 cores,    1 groups
 distr:  one band on    1 cores,    4 groups
 vasp.6.5.1 10Mar25 (build May 31 2025 23:02:25) complex                        
  
 POSCAR found type information on POSCAR Fe
 POSCAR found :  1 types and       2 ions
 Reading from existing POTCAR
 scaLAPACK will be used
 Reading from existing POTCAR
 LDA part: xc-table for (Slater+PW92), standard interpolation
 -----------------------------------------------------------------------------
|                                                                             |
|           W    W    AA    RRRRR   N    N  II  N    N   GGGG   !!!           |
|           W    W   A  A   R    R  NN   N  II  NN   N  G    G  !!!           |
|           W    W  A    A  R    R  N N  N  II  N N  N  G       !!!           |
|           W WW W  AAAAAA  RRRRR   N  N N  II  N  N N  G  GGG   !            |
|           WW  WW  A    A  R   R   N   NN  II  N   NN  G    G                |
|           W    W  A    A  R    R  N    N  II  N    N   GGGG   !!!           |
|                                                                             |
|     The requested file  could not be found or opened for reading            |
|     k-point information. Automatic k-point generation is used as a          |
|     fallback, which may lead to unwanted results.                           |
|                                                                             |
 -----------------------------------------------------------------------------

 found WAVECAR, reading the header
 INCAR ok, starting setup
 POSCAR ok, starting setup
 FFT: planning ... GRIDC
 FFT: planning ... GRID_SOFT
 FFT: planning ... GRID
 reading WAVECAR
 the WAVECAR file was read successfully
 initial charge from wavefunction
 entering main loop
       N       E                     dE             d eps       ncg     rms          rms(c)
DAV:   1    -0.179139751946E+02   -0.17914E+02   -0.91150E+00  1280   0.586E+01    0.145E+01
RMM:   2    -0.165803796727E+02    0.13336E+01   -0.48446E+00  1280   0.289E+01    0.147E+01
RMM:   3    -0.164700220063E+02    0.11036E+00   -0.21072E-01  1280   0.659E+00    0.179E+00
RMM:   4    -0.164716571340E+02   -0.16351E-02   -0.16503E-02  1280   0.124E+00    0.574E-01
RMM:   5    -0.164719315056E+02   -0.27437E-03   -0.12716E-03  1267   0.365E-01    0.505E-01
RMM:   6    -0.164728798602E+02   -0.94835E-03   -0.47787E-03  1336   0.911E-01    0.304E-01
RMM:   7    -0.164729316657E+02   -0.51806E-04   -0.12208E-04  1211   0.975E-02    0.281E-01
RMM:   8    -0.164727039687E+02    0.22770E-03   -0.48800E-05  1122   0.960E-02    0.240E-01
RMM:   9    -0.164721477494E+02    0.55622E-03   -0.74460E-04  1467   0.326E-01    0.109E-01
RMM:  10    -0.164720861757E+02    0.61574E-04   -0.84546E-05  1245   0.112E-01    0.111E-01
RMM:  11    -0.164720306817E+02    0.55494E-04   -0.35666E-05  1001   0.564E-02    0.117E-01
RMM:  12    -0.164719681305E+02    0.62551E-04   -0.24119E-05   948   0.378E-02    0.125E-01
RMM:  13    -0.164719231269E+02    0.45004E-04   -0.96969E-06   753   0.239E-02    0.123E-01
RMM:  14    -0.164720099396E+02   -0.86813E-04   -0.93493E-06   793   0.302E-02    0.107E-01
RMM:  15    -0.164720568860E+02   -0.46946E-04   -0.10876E-05   759   0.324E-02    0.103E-01
RMM:  16    -0.164723770059E+02   -0.32012E-03   -0.31235E-04  1390   0.153E-01    0.803E-02
RMM:  17    -0.164727799050E+02   -0.40290E-03   -0.20843E-04  1339   0.129E-01    0.569E-02
RMM:  18    -0.164729386272E+02   -0.15872E-03   -0.42692E-05  1073   0.701E-02    0.349E-02
RMM:  19    -0.164729757596E+02   -0.37132E-04   -0.22648E-05   927   0.412E-02    0.134E-02
RMM:  20    -0.164729514562E+02    0.24303E-04   -0.33258E-05   986   0.461E-02    0.661E-02
RMM:  21    -0.164729600786E+02   -0.86224E-05   -0.27256E-06   671   0.196E-02
   1 F= -.16472960E+02 E0= -.16471285E+02  d E =-.164730E+02  mag=     4.3399
 curvature:   0.00 expect dE= 0.000E+00 dE for cont linesearch  0.000E+00
 trial: gam= 0.00000 g(F)=  0.898E-62 g(S)=  0.696E-01 ort = 0.000E+00 (trialstep = 0.100E+01)
 search vector abs. value=  0.696E-01
 bond charge predicted
       N       E                     dE             d eps       ncg     rms          rms(c)
DAV:   1    -0.172976825023E+02   -0.82473E+00   -0.10332E+01  1280   0.583E+01    0.857E+00
RMM:   2    -0.165324564741E+02    0.76523E+00   -0.20305E+00  1280   0.195E+01    0.696E+00
RMM:   3    -0.164989563673E+02    0.33500E-01   -0.14228E-01  1280   0.545E+00    0.258E+00
RMM:   4    -0.164919434720E+02    0.70129E-02   -0.13486E-02  1280   0.109E+00    0.571E-01
RMM:   5    -0.164860163280E+02    0.59271E-02   -0.40443E-03  1280   0.722E-01    0.115E-01
RMM:   6    -0.164861799998E+02   -0.16367E-03   -0.51219E-04  1290   0.193E-01    0.536E-02
RMM:   7    -0.164861789937E+02    0.10062E-05   -0.78743E-05  1234   0.104E-01
   2 F= -.16486179E+02 E0= -.16485248E+02  d E =-.132189E-01  mag=     4.1510
 trial-energy change:   -0.013219  1 .order   -0.003597   -0.069604    0.062411
 step:   0.6293(harm=  0.5272)  dis= 0.00000  next Energy=   -16.497258 (dE=-0.243E-01)
 bond charge predicted
       N       E                     dE             d eps       ncg     rms          rms(c)
DAV:   1    -0.166036803620E+02   -0.11750E+00   -0.14707E+00  1296   0.229E+01    0.288E+00
RMM:   2    -0.165063014461E+02    0.97379E-01   -0.26017E-01  1280   0.693E+00    0.247E+00
RMM:   3    -0.165016209839E+02    0.46805E-02   -0.16718E-02  1280   0.182E+00    0.972E-01
RMM:   4    -0.165004162416E+02    0.12047E-02   -0.19168E-03  1280   0.384E-01    0.263E-01
RMM:   5    -0.164994410252E+02    0.97522E-03   -0.43583E-04  1280   0.250E-01    0.376E-02
RMM:   6    -0.164994618228E+02   -0.20798E-04   -0.59195E-05  1247   0.638E-02    0.227E-02
RMM:   7    -0.164994656255E+02   -0.38027E-05   -0.13966E-05   854   0.497E-02
   3 F= -.16499466E+02 E0= -.16498710E+02  d E =-.265055E-01  mag=     4.1667
 curvature:  -0.25 expect dE=-0.213E-03 dE for cont linesearch -0.213E-03
 ZBRENT: interpolating
 opt :   0.5667  next Energy=   -16.499706 (dE=-0.267E-01)
 bond charge predicted
       N       E                     dE             d eps       ncg     rms          rms(c)
DAV:   1    -0.165024414439E+02   -0.29796E-02   -0.41393E-02  1344   0.380E+00    0.487E-01
RMM:   2    -0.164996121884E+02    0.28293E-02   -0.75952E-03  1280   0.118E+00    0.416E-01
RMM:   3    -0.164994740823E+02    0.13811E-03   -0.48780E-04  1278   0.316E-01    0.164E-01
RMM:   4    -0.164994395871E+02    0.34495E-04   -0.53496E-05  1100   0.642E-02    0.424E-02
RMM:   5    -0.164994115759E+02    0.28011E-04   -0.11513E-05   826   0.393E-02    0.650E-03
RMM:   6    -0.164994123857E+02   -0.80978E-06   -0.12694E-06   685   0.105E-02
   4 F= -.16499412E+02 E0= -.16498655E+02  d E =-.264523E-01  mag=     4.1667
 curvature:  -0.28 expect dE=-0.176E-03 dE for cont linesearch -0.176E-03
 ZBRENT: interpolating
 opt :   0.5956  next Energy=   -16.499507 (dE=-0.265E-01)
 bond charge predicted
       N       E                     dE             d eps       ncg     rms          rms(c)
DAV:   1    -0.165001439482E+02   -0.73237E-03   -0.86816E-03  1312   0.174E+00    0.222E-01
RMM:   2    -0.164995595644E+02    0.58438E-03   -0.15722E-03  1280   0.540E-01    0.188E-01
RMM:   3    -0.164995302388E+02    0.29326E-04   -0.10162E-04  1244   0.144E-01    0.756E-02
RMM:   4    -0.164995237037E+02    0.65351E-05   -0.11210E-05   726   0.291E-02
   5 F= -.16499524E+02 E0= -.16498767E+02  d E =-.265636E-01  mag=     4.1667
 curvature:  -0.15 expect dE=-0.103E-05 dE for cont linesearch -0.103E-05
 trial: gam= 0.00000 g(F)=  0.124E-60 g(S)=  0.675E-05 ort =-0.685E-03 (trialstep = 0.919E+00)
 search vector abs. value=  0.675E-05
 reached required accuracy - stopping structural energy minimisation
 writing wavefunctions
