   4   4   1   0
  0.9152720E+01  0.4254641E-09  0.2456565E-09  0.3764525E-09  0.5000000E-15
  1.000000000000000E-004
  CAR 
 unknown system                          
     17.39267159    -16.44055838  301      4.76121170      1.00000000
    -16.441  0.0000E+00  0.0000E+00
    -16.328  0.0000E+00  0.0000E+00
    -16.215  0.0000E+00  0.0000E+00
    -16.102  0.0000E+00  0.0000E+00
    -15.989  0.0000E+00  0.0000E+00
    -15.877  0.0000E+00  0.0000E+00
    -15.764  0.0000E+00  0.0000E+00
    -15.651  0.0000E+00  0.0000E+00
    -15.538  0.0000E+00  0.0000E+00
    -15.426  0.0000E+00  0.0000E+00
    -15.313  0.0000E+00  0.0000E+00
    -15.200  0.0000E+00  0.0000E+00
    -15.087  0.1135E-09  0.1280E-10
    -14.974  0.2683E-04  0.3026E-05
    -14.862  0.1168E-02  0.1347E-03
    -14.749  0.2382E-02  0.4034E-03
    -14.636  0.9028E-03  0.5052E-03
    -14.523  0.4949E-02  0.1063E-02
    -14.411  0.8361E-02  0.2006E-02
    -14.298  0.5799E-02  0.2660E-02
    -14.185  0.8589E-02  0.3629E-02
    -14.072  0.9305E-02  0.4678E-02
    -13.959  0.6541E-02  0.5416E-02
    -13.847  0.7263E-02  0.6235E-02
    -13.734  0.1714E-02  0.6428E-02
    -13.621  0.7753E-06  0.6429E-02
    -13.508  0.1544E-03  0.6446E-02
    -13.396  0.5218E-02  0.7034E-02
    -13.283  0.8664E-02  0.8012E-02
    -13.170  0.7052E-02  0.8807E-02
    -13.057  0.1274E-01  0.1024E-01
    -12.944  0.1514E-01  0.1195E-01
    -12.832  0.1595E-01  0.1375E-01
    -12.719  0.1094E-01  0.1498E-01
    -12.606  0.1579E-03  0.1500E-01
    -12.493  0.5202E-09  0.1500E-01
    -12.381  0.0000E+00  0.1500E-01
    -12.268  0.1060E-15  0.1500E-01
    -12.155  0.3219E-07  0.1500E-01
    -12.042  0.6277E-03  0.1507E-01
    -11.929  0.8342E-02  0.1601E-01
    -11.817  0.7424E-02  0.1685E-01
    -11.704  0.9092E-02  0.1787E-01
    -11.591  0.7814E-02  0.1876E-01
    -11.478  0.7834E-02  0.1964E-01
    -11.366  0.8863E-02  0.2064E-01
    -11.253  0.1504E-01  0.2233E-01
    -11.140  0.1784E-01  0.2435E-01
    -11.027  0.1580E-01  0.2613E-01
    -10.914  0.2658E-02  0.2643E-01
    -10.802  0.1009E-05  0.2643E-01
    -10.689  0.4096E-13  0.2643E-01
    -10.576  0.3235E-16  0.2643E-01
    -10.463  0.1592E-07  0.2643E-01
    -10.351  0.5468E-03  0.2649E-01
    -10.238  0.1437E-01  0.2811E-01
    -10.125  0.1901E-01  0.3025E-01
    -10.012  0.1576E-01  0.3203E-01
     -9.899  0.9784E-03  0.3214E-01
     -9.787  0.5964E-07  0.3214E-01
     -9.674  0.3558E-05  0.3214E-01
     -9.561  0.1771E-02  0.3234E-01
     -9.448  0.4259E-02  0.3282E-01
     -9.336  0.2529E-02  0.3311E-01
     -9.223  0.1351E-01  0.3463E-01
     -9.110  0.2536E-01  0.3749E-01
     -8.997  0.9445E-02  0.3856E-01
     -8.884  0.1210E-03  0.3857E-01
     -8.772  0.2785E-09  0.3857E-01
     -8.659  0.6125E-10  0.3857E-01
     -8.546  0.3005E-04  0.3857E-01
     -8.433  0.3193E-02  0.3893E-01
     -8.321  0.6766E-02  0.3970E-01
     -8.208  0.9207E-02  0.4074E-01
     -8.095  0.1712E-01  0.4267E-01
     -7.982  0.1905E-01  0.4482E-01
     -7.869  0.1633E-02  0.4500E-01
     -7.757  0.5385E-03  0.4506E-01
     -7.644  0.1050E-01  0.4624E-01
     -7.531  0.2173E-01  0.4869E-01
     -7.418  0.5238E-02  0.4929E-01
     -7.306  0.1809E-05  0.4929E-01
     -7.193  0.7919E-13  0.4929E-01
     -7.080  0.5625E-18  0.4929E-01
     -6.967  0.1330E-08  0.4929E-01
     -6.854  0.1799E-03  0.4931E-01
     -6.742  0.8243E-02  0.5024E-01
     -6.629  0.4233E-02  0.5071E-01
     -6.516  0.1105E-04  0.5071E-01
     -6.403  0.1668E-10  0.5071E-01
     -6.291  0.2351E-04  0.5072E-01
     -6.178  0.8340E-02  0.5166E-01
     -6.065  0.2875E-01  0.5490E-01
     -5.952  0.1787E-01  0.5692E-01
     -5.839  0.7609E-02  0.5777E-01
     -5.727  0.1342E-01  0.5929E-01
     -5.614  0.1190E-01  0.6063E-01
     -5.501  0.5819E-02  0.6128E-01
     -5.388  0.7444E-02  0.6212E-01
     -5.276  0.1657E-03  0.6214E-01
     -5.163  0.1554E-03  0.6216E-01
     -5.050  0.9296E-02  0.6321E-01
     -4.937  0.1346E-01  0.6473E-01
     -4.824  0.1366E-01  0.6627E-01
     -4.712  0.3385E-02  0.6665E-01
     -4.599  0.1019E-01  0.6780E-01
     -4.486  0.5252E-03  0.6786E-01
     -4.373  0.6531E-03  0.6793E-01
     -4.261  0.1648E-01  0.6979E-01
     -4.148  0.8175E-02  0.7071E-01
     -4.035  0.2552E-04  0.7071E-01
     -3.922  0.1346E-10  0.7071E-01
     -3.809  0.4109E-09  0.7071E-01
     -3.697  0.6967E-04  0.7072E-01
     -3.584  0.2206E-02  0.7097E-01
     -3.471  0.9011E-03  0.7107E-01
     -3.358  0.2445E-01  0.7383E-01
     -3.246  0.2767E-01  0.7695E-01
     -3.133  0.8397E-02  0.7790E-01
     -3.020  0.1786E-01  0.7991E-01
     -2.907  0.6973E-02  0.8070E-01
     -2.794  0.2125E-01  0.8309E-01
     -2.682  0.1887E-01  0.8522E-01
     -2.569  0.2926E-01  0.8852E-01
     -2.456  0.4796E-02  0.8906E-01
     -2.343  0.4391E-02  0.8956E-01
     -2.231  0.6022E-03  0.8963E-01
     -2.118  0.1656E-01  0.9149E-01
     -2.005  0.6519E-02  0.9223E-01
     -1.892  0.2816E-01  0.9540E-01
     -1.779  0.2901E-01  0.9868E-01
     -1.667  0.2096E-01  0.1010E+00
     -1.554  0.2361E-01  0.1037E+00
     -1.441  0.1565E-01  0.1055E+00
     -1.328  0.1926E-01  0.1076E+00
     -1.216  0.2037E-01  0.1099E+00
     -1.103  0.8207E-02  0.1109E+00
     -0.990  0.6259E-02  0.1116E+00
     -0.877  0.1208E-01  0.1129E+00
     -0.764  0.1153E-01  0.1142E+00
     -0.652  0.2366E-01  0.1169E+00
     -0.539  0.2377E-01  0.1196E+00
     -0.426  0.1004E-01  0.1207E+00
     -0.313  0.4829E-02  0.1213E+00
     -0.201  0.1544E-01  0.1230E+00
     -0.088  0.8368E-02  0.1239E+00
      0.025  0.9208E-02  0.1250E+00
      0.138  0.5206E-02  0.1256E+00
      0.251  0.1013E-01  0.1267E+00
      0.363  0.1647E-01  0.1286E+00
      0.476  0.4615E-01  0.1338E+00
      0.589  0.8101E-02  0.1347E+00
      0.702  0.1118E-02  0.1348E+00
      0.814  0.7975E-02  0.1357E+00
      0.927  0.5169E-02  0.1363E+00
      1.040  0.2647E-01  0.1393E+00
      1.153  0.1251E-01  0.1407E+00
      1.265  0.3716E-02  0.1411E+00
      1.378  0.8402E-02  0.1421E+00
      1.491  0.5422E-02  0.1427E+00
      1.604  0.9371E-03  0.1428E+00
      1.717  0.1912E-01  0.1449E+00
      1.829  0.1951E-01  0.1471E+00
      1.942  0.1110E-01  0.1484E+00
      2.055  0.6707E-02  0.1491E+00
      2.168  0.3296E-02  0.1495E+00
      2.280  0.1788E-02  0.1497E+00
      2.393  0.2416E-02  0.1500E+00
      2.506  0.8540E-02  0.1509E+00
      2.619  0.1781E-01  0.1530E+00
      2.732  0.1241E-01  0.1544E+00
      2.844  0.5164E-02  0.1549E+00
      2.957  0.4684E-02  0.1555E+00
      3.070  0.7389E-02  0.1563E+00
      3.183  0.6767E-02  0.1571E+00
      3.295  0.1168E-02  0.1572E+00
      3.408  0.5389E-02  0.1578E+00
      3.521  0.4219E-02  0.1583E+00
      3.634  0.5392E-04  0.1583E+00
      3.747  0.4344E-04  0.1583E+00
      3.859  0.3123E-02  0.1586E+00
      3.972  0.6726E-02  0.1594E+00
      4.085  0.2418E-03  0.1594E+00
      4.198  0.1647E-03  0.1594E+00
      4.310  0.4449E-02  0.1599E+00
      4.423  0.4529E-03  0.1600E+00
      4.536  0.1464E-07  0.1600E+00
      4.649  0.2813E-16  0.1600E+00
      4.762  0.0000E+00  0.1600E+00
      4.874  0.0000E+00  0.1600E+00
      4.987  0.3375E-16  0.1600E+00
      5.100  0.1623E-07  0.1600E+00
      5.213  0.4711E-03  0.1601E+00
      5.325  0.4439E-02  0.1606E+00
      5.438  0.1570E-03  0.1606E+00
      5.551  0.1526E-02  0.1607E+00
      5.664  0.6003E-02  0.1614E+00
      5.777  0.7120E-04  0.1614E+00
      5.889  0.1515E-03  0.1614E+00
      6.002  0.6313E-02  0.1622E+00
      6.115  0.3682E-02  0.1626E+00
      6.228  0.8237E-02  0.1635E+00
      6.340  0.8489E-02  0.1645E+00
      6.453  0.1862E-01  0.1666E+00
      6.566  0.1367E-01  0.1681E+00
      6.679  0.5192E-03  0.1682E+00
      6.792  0.5118E-02  0.1687E+00
      6.904  0.1225E-01  0.1701E+00
      7.017  0.5279E-02  0.1707E+00
      7.130  0.1092E-04  0.1707E+00
      7.243  0.2758E-02  0.1710E+00
      7.355  0.1191E-01  0.1724E+00
      7.468  0.4832E-02  0.1729E+00
      7.581  0.4044E-02  0.1734E+00
      7.694  0.1790E-02  0.1736E+00
      7.807  0.1956E-02  0.1738E+00
      7.919  0.7374E-02  0.1746E+00
      8.032  0.7551E-02  0.1755E+00
      8.145  0.4898E-02  0.1760E+00
      8.258  0.7247E-02  0.1768E+00
      8.370  0.6272E-02  0.1776E+00
      8.483  0.2337E-02  0.1778E+00
      8.596  0.7456E-02  0.1787E+00
      8.709  0.7733E-02  0.1795E+00
      8.822  0.1026E-01  0.1807E+00
      8.934  0.4691E-02  0.1812E+00
      9.047  0.9641E-02  0.1823E+00
      9.160  0.5624E-02  0.1829E+00
      9.273  0.4313E-02  0.1834E+00
      9.385  0.7342E-03  0.1835E+00
      9.498  0.8231E-02  0.1844E+00
      9.611  0.3615E-02  0.1848E+00
      9.724  0.4849E-03  0.1849E+00
      9.837  0.4979E-02  0.1855E+00
      9.949  0.2249E-02  0.1857E+00
     10.062  0.2613E-04  0.1857E+00
     10.175  0.9862E-05  0.1857E+00
     10.288  0.3414E-02  0.1861E+00
     10.400  0.4161E-02  0.1866E+00
     10.513  0.1547E-04  0.1866E+00
     10.626  0.1206E-03  0.1866E+00
     10.739  0.4373E-02  0.1871E+00
     10.852  0.3080E-02  0.1874E+00
     10.964  0.8522E-02  0.1884E+00
     11.077  0.8365E-02  0.1893E+00
     11.190  0.1020E-01  0.1905E+00
     11.303  0.4008E-02  0.1909E+00
     11.415  0.1039E-01  0.1921E+00
     11.528  0.1267E-01  0.1935E+00
     11.641  0.1371E-01  0.1951E+00
     11.754  0.6128E-02  0.1958E+00
     11.867  0.2217E-02  0.1960E+00
     11.979  0.8366E-02  0.1970E+00
     12.092  0.1158E-01  0.1983E+00
     12.205  0.1725E-01  0.2002E+00
     12.318  0.1058E-01  0.2014E+00
     12.430  0.1973E-01  0.2036E+00
     12.543  0.1263E-01  0.2051E+00
     12.656  0.1214E-01  0.2064E+00
     12.769  0.1288E-01  0.2079E+00
     12.882  0.1440E-01  0.2095E+00
     12.994  0.1629E-01  0.2113E+00
     13.107  0.2153E-01  0.2138E+00
     13.220  0.1983E-01  0.2160E+00
     13.333  0.1688E-01  0.2179E+00
     13.445  0.2372E-01  0.2206E+00
     13.558  0.1698E-01  0.2225E+00
     13.671  0.1257E-01  0.2239E+00
     13.784  0.7412E-02  0.2248E+00
     13.897  0.1546E-01  0.2265E+00
     14.009  0.3160E-02  0.2269E+00
     14.122  0.8363E-02  0.2278E+00
     14.235  0.1740E-01  0.2298E+00
     14.348  0.2146E-01  0.2322E+00
     14.460  0.2326E-01  0.2348E+00
     14.573  0.3003E-02  0.2351E+00
     14.686  0.1286E-02  0.2353E+00
     14.799  0.3754E-02  0.2357E+00
     14.912  0.1995E-03  0.2357E+00
     15.024  0.7405E-02  0.2366E+00
     15.137  0.5103E-02  0.2371E+00
     15.250  0.4390E-02  0.2376E+00
     15.363  0.4459E-02  0.2381E+00
     15.475  0.3777E-02  0.2386E+00
     15.588  0.3546E-03  0.2386E+00
     15.701  0.4502E-02  0.2391E+00
     15.814  0.1828E-02  0.2393E+00
     15.927  0.5901E-02  0.2400E+00
     16.039  0.1123E-03  0.2400E+00
     16.152  0.4555E-09  0.2400E+00
     16.265  0.0000E+00  0.2400E+00
     16.378  0.0000E+00  0.2400E+00
     16.490  0.0000E+00  0.2400E+00
     16.603  0.0000E+00  0.2400E+00
     16.716  0.0000E+00  0.2400E+00
     16.829  0.0000E+00  0.2400E+00
     16.942  0.0000E+00  0.2400E+00
     17.054  0.0000E+00  0.2400E+00
     17.167  0.0000E+00  0.2400E+00
     17.280  0.0000E+00  0.2400E+00
     17.393  0.0000E+00  0.2400E+00
     17.39267159    -16.44055838  301      4.76121170      1.00000000
    -16.441  0.0000E+00  0.0000E+00  0.0000E+00  0.0000E+00  0.0000E+00  0.0000E+00  0.0000E+00  0.0000E+00  0.0000E+00
    -16.328  0.0000E+00  0.0000E+00  0.0000E+00  0.0000E+00  0.0000E+00  0.0000E+00  0.0000E+00  0.0000E+00  0.0000E+00
    -16.215  0.0000E+00  0.0000E+00  0.0000E+00  0.0000E+00  0.0000E+00  0.0000E+00  0.0000E+00  0.0000E+00  0.0000E+00
    -16.102  0.0000E+00  0.0000E+00  0.0000E+00  0.0000E+00  0.0000E+00  0.0000E+00  0.0000E+00  0.0000E+00  0.0000E+00
    -15.989  0.0000E+00  0.0000E+00  0.0000E+00  0.0000E+00  0.0000E+00  0.0000E+00  0.0000E+00  0.0000E+00  0.0000E+00
    -15.877  0.0000E+00  0.0000E+00  0.0000E+00  0.0000E+00  0.0000E+00  0.0000E+00  0.0000E+00  0.0000E+00  0.0000E+00
    -15.764  0.0000E+00  0.0000E+00  0.0000E+00  0.0000E+00  0.0000E+00  0.0000E+00  0.0000E+00  0.0000E+00  0.0000E+00
    -15.651  0.0000E+00  0.0000E+00  0.0000E+00  0.0000E+00  0.0000E+00  0.0000E+00  0.0000E+00  0.0000E+00  0.0000E+00
    -15.538  0.0000E+00  0.0000E+00  0.0000E+00  0.0000E+00  0.0000E+00  0.0000E+00  0.0000E+00  0.0000E+00  0.0000E+00
    -15.426  0.0000E+00  0.0000E+00  0.0000E+00  0.0000E+00  0.0000E+00  0.0000E+00  0.0000E+00  0.0000E+00  0.0000E+00
    -15.313  0.0000E+00  0.0000E+00  0.0000E+00  0.0000E+00  0.0000E+00  0.0000E+00  0.0000E+00  0.0000E+00  0.0000E+00
    -15.200  0.0000E+00  0.0000E+00  0.0000E+00  0.0000E+00  0.0000E+00  0.0000E+00  0.0000E+00  0.0000E+00  0.0000E+00
    -15.087  0.1787E-08  0.3169E-33  0.3387E-16  0.5948E-14  0.0000E+00  0.0000E+00  0.0000E+00  0.0000E+00  0.0000E+00
    -14.974  0.4224E-03  0.2611E-24  0.9777E-11  0.1406E-08  0.0000E+00  0.0000E+00  0.0000E+00  0.0000E+00  0.0000E+00
    -14.862  0.1840E-01  0.3479E-19  0.2359E-06  0.6144E-07  0.0000E+00  0.0000E+00  0.0000E+00  0.0000E+00  0.0000E+00
    -14.749  0.3792E-01  0.1074E-11  0.6270E-05  0.1315E-06  0.0000E+00  0.0000E+00  0.0000E+00  0.0000E+00  0.0000E+00
    -14.636  0.1462E-01  0.2522E-05  0.1453E-05  0.3153E-06  0.0000E+00  0.0000E+00  0.0000E+00  0.0000E+00  0.0000E+00
    -14.523  0.7813E-01  0.6332E-03  0.3609E-05  0.5408E-03  0.0000E+00  0.0000E+00  0.0000E+00  0.0000E+00  0.0000E+00
    -14.411  0.1302E+00  0.1755E-02  0.1388E-04  0.1427E-02  0.0000E+00  0.0000E+00  0.0000E+00  0.0000E+00  0.0000E+00
    -14.298  0.9160E-01  0.7203E-03  0.1542E-04  0.1534E-02  0.0000E+00  0.0000E+00  0.0000E+00  0.0000E+00  0.0000E+00
    -14.185  0.1365E+00  0.2113E-02  0.8835E-05  0.1650E-02  0.0000E+00  0.0000E+00  0.0000E+00  0.0000E+00  0.0000E+00
    -14.072  0.1423E+00  0.3330E-02  0.8269E-05  0.3493E-02  0.0000E+00  0.0000E+00  0.0000E+00  0.0000E+00  0.0000E+00
    -13.959  0.1015E+00  0.2509E-02  0.1792E-04  0.2533E-02  0.0000E+00  0.0000E+00  0.0000E+00  0.0000E+00  0.0000E+00
    -13.847  0.1136E+00  0.2816E-02  0.9759E-05  0.2844E-02  0.0000E+00  0.0000E+00  0.0000E+00  0.0000E+00  0.0000E+00
    -13.734  0.2698E-01  0.6697E-03  0.2356E-06  0.6760E-03  0.0000E+00  0.0000E+00  0.0000E+00  0.0000E+00  0.0000E+00
    -13.621  0.1220E-04  0.3052E-06  0.9921E-10  0.3050E-06  0.0000E+00  0.0000E+00  0.0000E+00  0.0000E+00  0.0000E+00
    -13.508  0.2266E-02  0.2039E-03  0.7237E-09  0.2448E-04  0.0000E+00  0.0000E+00  0.0000E+00  0.0000E+00  0.0000E+00
    -13.396  0.7672E-01  0.4251E-02  0.2492E-05  0.3507E-02  0.0000E+00  0.0000E+00  0.0000E+00  0.0000E+00  0.0000E+00
    -13.283  0.1283E+00  0.6732E-02  0.1751E-04  0.6273E-02  0.0000E+00  0.0000E+00  0.0000E+00  0.0000E+00  0.0000E+00
    -13.170  0.1062E+00  0.5534E-02  0.9913E-05  0.5283E-02  0.0000E+00  0.0000E+00  0.0000E+00  0.0000E+00  0.0000E+00
    -13.057  0.1869E+00  0.1134E-01  0.8327E-05  0.1086E-01  0.0000E+00  0.0000E+00  0.0000E+00  0.0000E+00  0.0000E+00
    -12.944  0.2197E+00  0.1267E-01  0.2160E-04  0.1545E-01  0.0000E+00  0.0000E+00  0.0000E+00  0.0000E+00  0.0000E+00
    -12.832  0.2348E+00  0.1640E-01  0.3070E-04  0.1373E-01  0.0000E+00  0.0000E+00  0.0000E+00  0.0000E+00  0.0000E+00
    -12.719  0.1625E+00  0.9214E-02  0.6550E-05  0.1171E-01  0.0000E+00  0.0000E+00  0.0000E+00  0.0000E+00  0.0000E+00
    -12.606  0.2349E-02  0.1188E-03  0.2410E-07  0.1839E-03  0.0000E+00  0.0000E+00  0.0000E+00  0.0000E+00  0.0000E+00
    -12.493  0.7736E-08  0.3014E-09  0.6726E-13  0.6973E-09  0.0000E+00  0.0000E+00  0.0000E+00  0.0000E+00  0.0000E+00
    -12.381  0.0000E+00  0.0000E+00  0.0000E+00  0.0000E+00  0.0000E+00  0.0000E+00  0.0000E+00  0.0000E+00  0.0000E+00
    -12.268  0.1453E-14  0.1516E-15  0.2773E-20  0.1529E-15  0.0000E+00  0.0000E+00  0.0000E+00  0.0000E+00  0.0000E+00
    -12.155  0.4412E-06  0.4601E-07  0.8660E-12  0.4640E-07  0.0000E+00  0.0000E+00  0.0000E+00  0.0000E+00  0.0000E+00
    -12.042  0.8605E-02  0.8974E-03  0.5426E-07  0.9051E-03  0.0000E+00  0.0000E+00  0.0000E+00  0.0000E+00  0.0000E+00
    -11.929  0.1147E+00  0.1196E-01  0.7553E-05  0.1207E-01  0.0000E+00  0.0000E+00  0.0000E+00  0.0000E+00  0.0000E+00
    -11.817  0.1031E+00  0.1079E-01  0.1184E-04  0.1087E-01  0.0000E+00  0.0000E+00  0.0000E+00  0.0000E+00  0.0000E+00
    -11.704  0.1275E+00  0.1455E-01  0.8005E-05  0.1253E-01  0.0000E+00  0.0000E+00  0.0000E+00  0.0000E+00  0.0000E+00
    -11.591  0.1062E+00  0.1567E-01  0.6268E-05  0.9240E-02  0.0000E+00  0.0000E+00  0.0000E+00  0.0000E+00  0.0000E+00
    -11.478  0.1070E+00  0.1066E-01  0.1213E-04  0.1457E-01  0.0000E+00  0.0000E+00  0.0000E+00  0.0000E+00  0.0000E+00
    -11.366  0.1224E+00  0.1477E-01  0.7202E-05  0.1436E-01  0.0000E+00  0.0000E+00  0.0000E+00  0.0000E+00  0.0000E+00
    -11.253  0.2013E+00  0.3003E-01  0.8679E-05  0.2223E-01  0.0000E+00  0.0000E+00  0.0000E+00  0.0000E+00  0.0000E+00
    -11.140  0.2403E+00  0.3034E-01  0.2787E-04  0.3280E-01  0.0000E+00  0.0000E+00  0.0000E+00  0.0000E+00  0.0000E+00
    -11.027  0.2153E+00  0.2582E-01  0.1200E-04  0.3083E-01  0.0000E+00  0.0000E+00  0.0000E+00  0.0000E+00  0.0000E+00
    -10.914  0.3630E-01  0.2144E-02  0.1654E-05  0.7454E-02  0.0000E+00  0.0000E+00  0.0000E+00  0.0000E+00  0.0000E+00
    -10.802  0.1379E-04  0.4185E-06  0.7467E-09  0.3236E-05  0.0000E+00  0.0000E+00  0.0000E+00  0.0000E+00  0.0000E+00
    -10.689  0.5595E-12  0.1586E-13  0.3065E-16  0.1325E-12  0.0000E+00  0.0000E+00  0.0000E+00  0.0000E+00  0.0000E+00
    -10.576  0.4251E-15  0.9050E-16  0.2068E-20  0.4060E-16  0.0000E+00  0.0000E+00  0.0000E+00  0.0000E+00  0.0000E+00
    -10.463  0.2091E-06  0.4444E-07  0.1086E-11  0.2009E-07  0.0000E+00  0.0000E+00  0.0000E+00  0.0000E+00  0.0000E+00
    -10.351  0.7171E-02  0.1466E-02  0.9051E-07  0.7653E-03  0.0000E+00  0.0000E+00  0.0000E+00  0.0000E+00  0.0000E+00
    -10.238  0.1872E+00  0.3258E-01  0.8217E-05  0.2764E-01  0.0000E+00  0.0000E+00  0.0000E+00  0.0000E+00  0.0000E+00
    -10.125  0.2491E+00  0.3979E-01  0.2312E-04  0.4154E-01  0.0000E+00  0.0000E+00  0.0000E+00  0.0000E+00  0.0000E+00
    -10.012  0.2086E+00  0.3162E-01  0.9798E-05  0.3695E-01  0.0000E+00  0.0000E+00  0.0000E+00  0.0000E+00  0.0000E+00
     -9.899  0.1280E-01  0.1518E-02  0.6083E-06  0.2891E-02  0.0000E+00  0.0000E+00  0.0000E+00  0.0000E+00  0.0000E+00
     -9.787  0.7785E-06  0.8579E-07  0.4263E-10  0.1852E-06  0.0000E+00  0.0000E+00  0.0000E+00  0.0000E+00  0.0000E+00
     -9.674  0.5296E-04  0.4175E-15  0.5225E-09  0.1119E-04  0.0000E+00  0.0000E+00  0.0000E+00  0.0000E+00  0.0000E+00
     -9.561  0.2637E-01  0.3167E-10  0.4447E-06  0.5585E-02  0.0000E+00  0.0000E+00  0.0000E+00  0.0000E+00  0.0000E+00
     -9.448  0.6361E-01  0.4938E-04  0.2886E-05  0.1350E-01  0.0000E+00  0.0000E+00  0.0000E+00  0.0000E+00  0.0000E+00
     -9.336  0.3222E-01  0.1058E-01  0.8635E-06  0.1787E-02  0.0000E+00  0.0000E+00  0.0000E+00  0.0000E+00  0.0000E+00
     -9.223  0.1831E+00  0.3667E-01  0.7957E-05  0.2225E-01  0.0000E+00  0.0000E+00  0.0000E+00  0.0000E+00  0.0000E+00
     -9.110  0.3525E+00  0.7152E-01  0.1559E-04  0.3416E-01  0.0000E+00  0.0000E+00  0.0000E+00  0.0000E+00  0.0000E+00
     -8.997  0.1341E+00  0.2891E-01  0.3943E-05  0.9093E-02  0.0000E+00  0.0000E+00  0.0000E+00  0.0000E+00  0.0000E+00
     -8.884  0.1724E-02  0.3703E-03  0.4742E-07  0.1139E-03  0.0000E+00  0.0000E+00  0.0000E+00  0.0000E+00  0.0000E+00
     -8.772  0.3961E-08  0.8618E-09  0.1140E-12  0.2562E-09  0.0000E+00  0.0000E+00  0.0000E+00  0.0000E+00  0.0000E+00
     -8.659  0.4175E-09  0.4797E-30  0.2651E-13  0.5953E-09  0.0000E+00  0.0000E+00  0.0000E+00  0.0000E+00  0.0000E+00
     -8.546  0.2048E-03  0.3008E-11  0.1331E-07  0.2920E-03  0.0000E+00  0.0000E+00  0.0000E+00  0.0000E+00  0.0000E+00
     -8.433  0.2189E-01  0.1447E-04  0.2669E-05  0.3104E-01  0.0000E+00  0.0000E+00  0.0000E+00  0.0000E+00  0.0000E+00
     -8.321  0.6917E-01  0.8213E-02  0.6355E-05  0.4150E-01  0.0000E+00  0.0000E+00  0.0000E+00  0.0000E+00  0.0000E+00
     -8.208  0.1167E+00  0.1941E-01  0.5357E-05  0.3241E-01  0.0000E+00  0.0000E+00  0.0000E+00  0.0000E+00  0.0000E+00
     -8.095  0.1271E+00  0.4712E-01  0.2058E-04  0.1156E+00  0.0000E+00  0.0000E+00  0.0000E+00  0.0000E+00  0.0000E+00
     -7.982  0.1435E+00  0.1132E+00  0.1659E-04  0.6853E-01  0.0000E+00  0.0000E+00  0.0000E+00  0.0000E+00  0.0000E+00
     -7.869  0.1254E-01  0.1079E-01  0.7906E-06  0.4729E-02  0.0000E+00  0.0000E+00  0.0000E+00  0.0000E+00  0.0000E+00
     -7.757  0.4403E-02  0.3792E-02  0.1182E-06  0.1065E-02  0.0000E+00  0.0000E+00  0.0000E+00  0.0000E+00  0.0000E+00
     -7.644  0.8675E-01  0.7313E-01  0.8783E-05  0.2137E-01  0.0000E+00  0.0000E+00  0.0000E+00  0.0000E+00  0.0000E+00
     -7.531  0.2046E+00  0.9019E-01  0.1683E-04  0.9094E-01  0.0000E+00  0.0000E+00  0.0000E+00  0.0000E+00  0.0000E+00
     -7.418  0.4975E-01  0.2101E-01  0.2500E-05  0.2256E-01  0.0000E+00  0.0000E+00  0.0000E+00  0.0000E+00  0.0000E+00
     -7.306  0.1617E-04  0.1036E-04  0.3729E-09  0.5477E-05  0.0000E+00  0.0000E+00  0.0000E+00  0.0000E+00  0.0000E+00
     -7.193  0.6808E-12  0.5354E-12  0.9786E-17  0.1782E-12  0.0000E+00  0.0000E+00  0.0000E+00  0.0000E+00  0.0000E+00
     -7.080  0.6126E-17  0.2747E-17  0.5222E-22  0.1627E-17  0.0000E+00  0.0000E+00  0.0000E+00  0.0000E+00  0.0000E+00
     -6.967  0.1448E-07  0.6493E-08  0.1244E-12  0.3846E-08  0.0000E+00  0.0000E+00  0.0000E+00  0.0000E+00  0.0000E+00
     -6.854  0.1959E-02  0.8784E-03  0.2048E-07  0.5204E-03  0.0000E+00  0.0000E+00  0.0000E+00  0.0000E+00  0.0000E+00
     -6.742  0.8989E-01  0.4037E-01  0.2749E-05  0.2393E-01  0.0000E+00  0.0000E+00  0.0000E+00  0.0000E+00  0.0000E+00
     -6.629  0.4626E-01  0.2081E-01  0.2840E-05  0.1233E-01  0.0000E+00  0.0000E+00  0.0000E+00  0.0000E+00  0.0000E+00
     -6.516  0.1210E-03  0.5443E-04  0.1020E-07  0.3223E-04  0.0000E+00  0.0000E+00  0.0000E+00  0.0000E+00  0.0000E+00
     -6.403  0.1661E-09  0.9787E-10  0.9366E-14  0.4613E-10  0.0000E+00  0.0000E+00  0.0000E+00  0.0000E+00  0.0000E+00
     -6.291  0.2207E-03  0.1508E-03  0.9013E-08  0.6266E-04  0.0000E+00  0.0000E+00  0.0000E+00  0.0000E+00  0.0000E+00
     -6.178  0.7630E-01  0.5423E-01  0.3705E-05  0.2286E-01  0.0000E+00  0.0000E+00  0.0000E+00  0.0000E+00  0.0000E+00
     -6.065  0.2517E+00  0.1886E+00  0.1658E-04  0.8619E-01  0.0000E+00  0.0000E+00  0.0000E+00  0.0000E+00  0.0000E+00
     -5.952  0.1428E+00  0.9024E-01  0.1095E-04  0.9037E-01  0.0000E+00  0.0000E+00  0.0000E+00  0.0000E+00  0.0000E+00
     -5.839  0.5808E-01  0.4367E-02  0.6779E-05  0.7435E-01  0.0000E+00  0.0000E+00  0.0000E+00  0.0000E+00  0.0000E+00
     -5.727  0.1041E+00  0.3621E-02  0.1129E-04  0.1350E+00  0.0000E+00  0.0000E+00  0.0000E+00  0.0000E+00  0.0000E+00
     -5.614  0.9347E-01  0.4070E-02  0.9920E-05  0.1199E+00  0.0000E+00  0.0000E+00  0.0000E+00  0.0000E+00  0.0000E+00
     -5.501  0.1116E-01  0.5761E-01  0.6385E-05  0.2852E-01  0.0000E+00  0.0000E+00  0.0000E+00  0.0000E+00  0.0000E+00
     -5.388  0.8475E-02  0.8628E-01  0.5349E-05  0.2869E-01  0.0000E+00  0.0000E+00  0.0000E+00  0.0000E+00  0.0000E+00
     -5.276  0.2045E-03  0.1940E-02  0.6903E-07  0.6153E-03  0.0000E+00  0.0000E+00  0.0000E+00  0.0000E+00  0.0000E+00
     -5.163  0.1632E-03  0.6532E-03  0.4953E-07  0.1769E-02  0.0000E+00  0.0000E+00  0.0000E+00  0.0000E+00  0.0000E+00
     -5.050  0.1123E-01  0.3973E-01  0.8116E-05  0.1044E+00  0.0000E+00  0.0000E+00  0.0000E+00  0.0000E+00  0.0000E+00
     -4.937  0.7456E-01  0.1039E+00  0.1046E-04  0.6252E-01  0.0000E+00  0.0000E+00  0.0000E+00  0.0000E+00  0.0000E+00
     -4.824  0.9699E-01  0.1225E+00  0.7795E-05  0.3252E-01  0.0000E+00  0.0000E+00  0.0000E+00  0.0000E+00  0.0000E+00
     -4.712  0.2606E-01  0.2912E-01  0.8455E-06  0.8531E-02  0.0000E+00  0.0000E+00  0.0000E+00  0.0000E+00  0.0000E+00
     -4.599  0.8276E-01  0.8496E-01  0.4709E-05  0.2662E-01  0.0000E+00  0.0000E+00  0.0000E+00  0.0000E+00  0.0000E+00
     -4.486  0.4273E-02  0.4392E-02  0.4194E-06  0.1375E-02  0.0000E+00  0.0000E+00  0.0000E+00  0.0000E+00  0.0000E+00
     -4.373  0.9973E-03  0.4581E-02  0.6197E-06  0.5690E-02  0.0000E+00  0.0000E+00  0.0000E+00  0.0000E+00  0.0000E+00
     -4.261  0.2608E-01  0.1139E+00  0.1513E-04  0.1455E+00  0.0000E+00  0.0000E+00  0.0000E+00  0.0000E+00  0.0000E+00
     -4.148  0.1362E-01  0.5517E-01  0.5656E-05  0.7366E-01  0.0000E+00  0.0000E+00  0.0000E+00  0.0000E+00  0.0000E+00
     -4.035  0.4312E-04  0.1713E-03  0.1200E-07  0.2312E-03  0.0000E+00  0.0000E+00  0.0000E+00  0.0000E+00  0.0000E+00
     -3.922  0.2268E-10  0.9065E-10  0.4143E-14  0.1217E-09  0.0000E+00  0.0000E+00  0.0000E+00  0.0000E+00  0.0000E+00
     -3.809  0.1228E-10  0.6796E-24  0.4002E-08  0.1335E-12  0.0000E+00  0.0000E+00  0.0000E+00  0.0000E+00  0.0000E+00
     -3.697  0.2082E-05  0.2317E-15  0.6786E-03  0.2264E-07  0.0000E+00  0.0000E+00  0.0000E+00  0.0000E+00  0.0000E+00
     -3.584  0.6598E-04  0.1333E-06  0.2148E-01  0.7636E-06  0.0000E+00  0.0000E+00  0.0000E+00  0.0000E+00  0.0000E+00
     -3.471  0.3235E-02  0.5787E-02  0.2516E-02  0.2908E-02  0.0000E+00  0.0000E+00  0.0000E+00  0.0000E+00  0.0000E+00
     -3.358  0.9452E-01  0.1770E+00  0.6742E-02  0.1677E+00  0.0000E+00  0.0000E+00  0.0000E+00  0.0000E+00  0.0000E+00
     -3.246  0.9077E-01  0.1739E+00  0.2018E-01  0.2100E+00  0.0000E+00  0.0000E+00  0.0000E+00  0.0000E+00  0.0000E+00
     -3.133  0.5867E-02  0.1943E-01  0.4433E-01  0.4451E-01  0.0000E+00  0.0000E+00  0.0000E+00  0.0000E+00  0.0000E+00
     -3.020  0.2375E-01  0.1635E+00  0.2970E-02  0.1310E+00  0.0000E+00  0.0000E+00  0.0000E+00  0.0000E+00  0.0000E+00
     -2.907  0.9493E-02  0.7387E-01  0.2045E-01  0.7650E-02  0.0000E+00  0.0000E+00  0.0000E+00  0.0000E+00  0.0000E+00
     -2.794  0.9130E-01  0.3995E-01  0.5262E-01  0.1755E+00  0.0000E+00  0.0000E+00  0.0000E+00  0.0000E+00  0.0000E+00
     -2.682  0.7729E-01  0.1252E+00  0.2578E-02  0.1501E+00  0.0000E+00  0.0000E+00  0.0000E+00  0.0000E+00  0.0000E+00
     -2.569  0.6802E-01  0.2958E+00  0.3037E-01  0.1305E+00  0.0000E+00  0.0000E+00  0.0000E+00  0.0000E+00  0.0000E+00
     -2.456  0.6457E-02  0.1900E-01  0.2977E-01  0.1361E-01  0.0000E+00  0.0000E+00  0.0000E+00  0.0000E+00  0.0000E+00
     -2.343  0.2855E-03  0.1155E-04  0.4521E-01  0.6292E-05  0.0000E+00  0.0000E+00  0.0000E+00  0.0000E+00  0.0000E+00
     -2.231  0.7305E-03  0.1750E-02  0.4860E-02  0.2880E-03  0.0000E+00  0.0000E+00  0.0000E+00  0.0000E+00  0.0000E+00
     -2.118  0.4658E-01  0.1158E+00  0.7897E-01  0.1896E-01  0.0000E+00  0.0000E+00  0.0000E+00  0.0000E+00  0.0000E+00
     -2.005  0.1659E-01  0.4256E-01  0.3139E-01  0.1251E-01  0.0000E+00  0.0000E+00  0.0000E+00  0.0000E+00  0.0000E+00
     -1.892  0.1880E-01  0.1148E+00  0.4394E-01  0.3195E+00  0.0000E+00  0.0000E+00  0.0000E+00  0.0000E+00  0.0000E+00
     -1.779  0.2234E-01  0.1246E+00  0.3142E-01  0.3471E+00  0.0000E+00  0.0000E+00  0.0000E+00  0.0000E+00  0.0000E+00
     -1.667  0.2909E-02  0.1028E+00  0.4981E-01  0.2161E+00  0.0000E+00  0.0000E+00  0.0000E+00  0.0000E+00  0.0000E+00
     -1.554  0.1807E-02  0.1433E+00  0.8401E-01  0.1594E+00  0.0000E+00  0.0000E+00  0.0000E+00  0.0000E+00  0.0000E+00
     -1.441  0.6170E-02  0.1438E+00  0.6211E-01  0.3629E-01  0.0000E+00  0.0000E+00  0.0000E+00  0.0000E+00  0.0000E+00
     -1.328  0.9726E-02  0.2546E+00  0.2784E-01  0.5521E-01  0.0000E+00  0.0000E+00  0.0000E+00  0.0000E+00  0.0000E+00
     -1.216  0.4291E-03  0.2066E+00  0.1118E+00  0.5129E-03  0.0000E+00  0.0000E+00  0.0000E+00  0.0000E+00  0.0000E+00
     -1.103  0.3873E-03  0.1454E-01  0.8229E-01  0.2871E-04  0.0000E+00  0.0000E+00  0.0000E+00  0.0000E+00  0.0000E+00
     -0.990  0.2511E-03  0.5752E-04  0.7499E-01  0.1667E-03  0.0000E+00  0.0000E+00  0.0000E+00  0.0000E+00  0.0000E+00
     -0.877  0.2688E-02  0.1499E-01  0.7420E-01  0.8495E-01  0.0000E+00  0.0000E+00  0.0000E+00  0.0000E+00  0.0000E+00
     -0.764  0.5627E-02  0.2745E-01  0.4080E-01  0.1180E+00  0.0000E+00  0.0000E+00  0.0000E+00  0.0000E+00  0.0000E+00
     -0.652  0.5800E-01  0.2044E+00  0.5181E-01  0.1116E+00  0.0000E+00  0.0000E+00  0.0000E+00  0.0000E+00  0.0000E+00
     -0.539  0.1804E-01  0.1351E+00  0.3328E-01  0.2590E+00  0.0000E+00  0.0000E+00  0.0000E+00  0.0000E+00  0.0000E+00
     -0.426  0.2513E-03  0.4848E-01  0.8005E-03  0.1478E+00  0.0000E+00  0.0000E+00  0.0000E+00  0.0000E+00  0.0000E+00
     -0.313  0.1076E-04  0.5599E-01  0.2069E-01  0.3173E-03  0.0000E+00  0.0000E+00  0.0000E+00  0.0000E+00  0.0000E+00
     -0.201  0.1546E-03  0.1905E+00  0.6531E-01  0.3748E-04  0.0000E+00  0.0000E+00  0.0000E+00  0.0000E+00  0.0000E+00
     -0.088  0.1933E-03  0.4820E-02  0.1002E+00  0.5107E-04  0.0000E+00  0.0000E+00  0.0000E+00  0.0000E+00  0.0000E+00
      0.025  0.3084E-03  0.3898E-04  0.1072E+00  0.5155E-04  0.0000E+00  0.0000E+00  0.0000E+00  0.0000E+00  0.0000E+00
      0.138  0.7161E-04  0.1871E-04  0.6095E-01  0.2877E-04  0.0000E+00  0.0000E+00  0.0000E+00  0.0000E+00  0.0000E+00
      0.251  0.1503E-03  0.6216E-04  0.1184E+00  0.2294E-03  0.0000E+00  0.0000E+00  0.0000E+00  0.0000E+00  0.0000E+00
      0.363  0.1219E-01  0.6061E-01  0.5891E-01  0.1559E+00  0.0000E+00  0.0000E+00  0.0000E+00  0.0000E+00  0.0000E+00
      0.476  0.3579E-01  0.3275E+00  0.8686E-01  0.3987E+00  0.0000E+00  0.0000E+00  0.0000E+00  0.0000E+00  0.0000E+00
      0.589  0.1037E-02  0.1012E-01  0.7894E-01  0.7429E-02  0.0000E+00  0.0000E+00  0.0000E+00  0.0000E+00  0.0000E+00
      0.702  0.2098E-04  0.2502E-05  0.1223E-01  0.8031E-05  0.0000E+00  0.0000E+00  0.0000E+00  0.0000E+00  0.0000E+00
      0.814  0.2140E-03  0.7269E-04  0.8868E-01  0.3925E-04  0.0000E+00  0.0000E+00  0.0000E+00  0.0000E+00  0.0000E+00
      0.927  0.1964E-03  0.3785E-02  0.5668E-01  0.3015E-02  0.0000E+00  0.0000E+00  0.0000E+00  0.0000E+00  0.0000E+00
      1.040  0.7285E-03  0.2099E+00  0.8033E-01  0.1883E+00  0.0000E+00  0.0000E+00  0.0000E+00  0.0000E+00  0.0000E+00
      1.153  0.4403E-03  0.5755E-01  0.8631E-01  0.4753E-01  0.0000E+00  0.0000E+00  0.0000E+00  0.0000E+00  0.0000E+00