       N       E                     dE             d eps       ncg     rms          rms(c)
DAV:   1     0.394102775702E+02    0.39410E+02   -0.80021E+03  1056   0.121E+03
DAV:   2    -0.358613197538E+02   -0.75272E+02   -0.68998E+02  1488   0.222E+02
DAV:   3    -0.392923833303E+02   -0.34311E+01   -0.34060E+01  1328   0.473E+01
DAV:   4    -0.393368945148E+02   -0.44511E-01   -0.44459E-01  1340   0.626E+00
DAV:   5    -0.393379747667E+02   -0.10803E-02   -0.10801E-02  1348   0.934E-01    0.905E+00
RMM:   6    -0.374424273654E+02    0.18955E+01   -0.16841E+00  1056   0.925E+00    0.527E+00
RMM:   7    -0.368431020872E+02    0.59933E+00   -0.28850E+00  1062   0.126E+01    0.137E+00
RMM:   8    -0.368713382003E+02   -0.28236E-01   -0.21947E-01  1056   0.374E+00    0.578E-01
RMM:   9    -0.368586962057E+02    0.12642E-01   -0.49526E-02  1056   0.191E+00    0.986E-02
RMM:  10    -0.368596909840E+02   -0.99478E-03   -0.99618E-03  1067   0.939E-01    0.855E-02
RMM:  11    -0.368599141889E+02   -0.22320E-03   -0.39173E-03  1058   0.550E-01    0.170E-01
RMM:  12    -0.368602294269E+02   -0.31524E-03   -0.18218E-03  1056   0.359E-01    0.220E-01
RMM:  13    -0.368601844540E+02    0.44973E-04   -0.19553E-04  1059   0.133E-01    0.180E-01
RMM:  14    -0.368600050187E+02    0.17944E-03   -0.15529E-04  1056   0.114E-01    0.732E-02
RMM:  15    -0.368599597965E+02    0.45222E-04   -0.94888E-05  1056   0.839E-02    0.325E-02
RMM:  16    -0.368599537353E+02    0.60612E-05   -0.19624E-05   737   0.428E-02
   1 F= -.37454226E+02 E0= -.37454226E+02  d E =-.374542E+02
       N       E                     dE             d eps       ncg     rms          rms(c)
DAV:   1    -0.368330760483E+02    0.26884E-01   -0.26144E+00  1276   0.154E+01    0.870E-01
RMM:   2    -0.368243912745E+02    0.86848E-02   -0.48294E-02  1056   0.205E+00    0.518E-01
RMM:   3    -0.368180507120E+02    0.63406E-02   -0.16968E-02  1056   0.117E+00    0.521E-02
RMM:   4    -0.368182064010E+02   -0.15569E-03   -0.17678E-03  1067   0.426E-01    0.430E-02
RMM:   5    -0.368182296603E+02   -0.23259E-04   -0.34990E-04  1064   0.182E-01    0.109E-02
RMM:   6    -0.368182352073E+02   -0.55469E-05   -0.73977E-05   956   0.810E-02
   2 F= -.37410338E+02 E0= -.37410338E+02  d E =0.438880E-01
       N       E                     dE             d eps       ncg     rms          rms(c)
DAV:   1    -0.368749841196E+02   -0.56754E-01   -0.14663E+00  1240   0.116E+01    0.676E-01
RMM:   2    -0.368693833675E+02    0.56008E-02   -0.23154E-02  1056   0.149E+00    0.389E-01
RMM:   3    -0.368657583136E+02    0.36251E-02   -0.95269E-03  1056   0.876E-01    0.395E-02
RMM:   4    -0.368658353383E+02   -0.77025E-04   -0.87215E-04  1059   0.314E-01    0.358E-02
RMM:   5    -0.368658465705E+02   -0.11232E-04   -0.18559E-04  1052   0.136E-01    0.919E-03
RMM:   6    -0.368658497308E+02   -0.31604E-05   -0.43137E-05   854   0.617E-02
   3 F= -.37460132E+02 E0= -.37460132E+02  d E =-.590596E-02
       N       E                     dE             d eps       ncg     rms          rms(c)
DAV:   1    -0.368658500612E+02   -0.34907E-05   -0.72210E-05  1272   0.839E-02    0.501E-03
RMM:   2    -0.368658499898E+02    0.71341E-07   -0.26094E-06   560   0.142E-02
   4 F= -.37460136E+02 E0= -.37460136E+02  d E =-.591014E-02
       N       E                     dE             d eps       ncg     rms          rms(c)
DAV:   1    -0.368637670680E+02    0.20830E-02   -0.31253E-01  1196   0.520E+00    0.215E-01
RMM:   2    -0.368625305959E+02    0.12365E-02   -0.47122E-03  1056   0.635E-01    0.131E-01
RMM:   3    -0.368617784176E+02    0.75218E-03   -0.24538E-03  1056   0.395E-01    0.207E-02
RMM:   4    -0.368618010810E+02   -0.22663E-04   -0.23327E-04  1072   0.149E-01    0.150E-02
RMM:   5    -0.368618047825E+02   -0.37015E-05   -0.41460E-05   873   0.624E-02
   5 F= -.37457492E+02 E0= -.37457492E+02  d E =0.264373E-02
       N       E                     dE             d eps       ncg     rms          rms(c)
DAV:   1    -0.368669658440E+02   -0.51648E-02   -0.15483E-01  1184   0.366E+00    0.153E-01
RMM:   2    -0.368663454688E+02    0.62038E-03   -0.23097E-03  1056   0.446E-01    0.927E-02
RMM:   3    -0.368659691459E+02    0.37632E-03   -0.12403E-03  1056   0.279E-01    0.144E-02
RMM:   4    -0.368659793036E+02   -0.10158E-04   -0.11352E-04  1053   0.104E-01    0.106E-02
RMM:   5    -0.368659810937E+02   -0.17901E-05   -0.20291E-05   706   0.436E-02
   6 F= -.37460703E+02 E0= -.37460703E+02  d E =-.566842E-03
       N       E                     dE             d eps       ncg     rms          rms(c)
DAV:   1    -0.368658137249E+02    0.16558E-03   -0.40906E-02  1088   0.168E+00    0.137E-01
RMM:   2    -0.368650001878E+02    0.81354E-03   -0.96983E-04  1056   0.253E-01    0.730E-02
RMM:   3    -0.368646739823E+02    0.32621E-03   -0.11385E-03  1056   0.239E-01    0.144E-02
RMM:   4    -0.368646826721E+02   -0.86898E-05   -0.81228E-05   988   0.874E-02
   7 F= -.37461432E+02 E0= -.37461432E+02  d E =-.729473E-03
       N       E                     dE             d eps       ncg     rms          rms(c)
DAV:   1    -0.368701765353E+02   -0.55026E-02   -0.36847E-01  1056   0.508E+00    0.415E-01
RMM:   2    -0.368628076281E+02    0.73689E-02   -0.88403E-03  1056   0.761E-01    0.221E-01
RMM:   3    -0.368598684006E+02    0.29392E-02   -0.10235E-02  1056   0.721E-01    0.427E-02
RMM:   4    -0.368599456411E+02   -0.77240E-04   -0.73782E-04  1064   0.264E-01    0.376E-02
RMM:   5    -0.368599533145E+02   -0.76734E-05   -0.92247E-05  1055   0.921E-02
   8 F= -.37462849E+02 E0= -.37462849E+02  d E =-.214634E-02
       N       E                     dE             d eps       ncg     rms          rms(c)
DAV:   1    -0.368877859947E+02   -0.27840E-01   -0.15073E+00  1056   0.103E+01    0.837E-01
RMM:   2    -0.368580620812E+02    0.29724E-01   -0.35938E-02  1056   0.154E+00    0.445E-01
RMM:   3    -0.368462649375E+02    0.11797E-01   -0.40459E-02  1056   0.144E+00    0.853E-02
RMM:   4    -0.368465651278E+02   -0.30019E-03   -0.29127E-03  1062   0.527E-01    0.725E-02
RMM:   5    -0.368465938921E+02   -0.28764E-04   -0.36653E-04  1056   0.183E-01    0.378E-02
RMM:   6    -0.368465892934E+02    0.45986E-05   -0.11191E-04  1011   0.889E-02    0.667E-03
RMM:   7    -0.368465913824E+02   -0.20890E-05   -0.14407E-05   730   0.351E-02
   9 F= -.37462050E+02 E0= -.37462050E+02  d E =-.134763E-02
       N       E                     dE             d eps       ncg     rms          rms(c)
DAV:   1    -0.368693305262E+02   -0.22741E-01   -0.51552E-01  1096   0.597E+00    0.484E-01
RMM:   2    -0.368590896251E+02    0.10241E-01   -0.12238E-02  1056   0.905E-01    0.260E-01
RMM:   3    -0.368549055843E+02    0.41840E-02   -0.14401E-02  1056   0.852E-01    0.507E-02
RMM:   4    -0.368550118084E+02   -0.10622E-03   -0.10535E-03  1063   0.316E-01    0.520E-02
RMM:   5    -0.368550170786E+02   -0.52702E-05   -0.15079E-04  1011   0.112E-01    0.413E-02
RMM:   6    -0.368550442596E+02   -0.27181E-04   -0.17689E-04  1056   0.108E-01    0.400E-02
RMM:   7    -0.368550241790E+02    0.20081E-04   -0.17569E-05   646   0.375E-02    0.297E-02
RMM:   8    -0.368550201142E+02    0.40648E-05   -0.25301E-06   597   0.143E-02
  10 F= -.37463124E+02 E0= -.37463124E+02  d E =-.242092E-02
       N       E                     dE             d eps       ncg     rms          rms(c)
DAV:   1    -0.368582953508E+02   -0.32712E-02   -0.40734E-02  1088   0.169E+00    0.142E-01
RMM:   2    -0.368574302028E+02    0.86515E-03   -0.10092E-03  1056   0.257E-01    0.756E-02
RMM:   3    -0.368570831403E+02    0.34706E-03   -0.12102E-03  1056   0.247E-01    0.148E-02
RMM:   4    -0.368570919634E+02   -0.88231E-05   -0.88835E-05   993   0.915E-02
  11 F= -.37463114E+02 E0= -.37463114E+02  d E =-.241090E-02
       N       E                     dE             d eps       ncg     rms          rms(c)
DAV:   1    -0.368568013829E+02    0.28176E-03   -0.45242E-03  1136   0.555E-01    0.439E-02
RMM:   2    -0.368567171218E+02    0.84261E-04   -0.10051E-04  1056   0.813E-02    0.235E-02
RMM:   3    -0.368566828080E+02    0.34314E-04   -0.11915E-04  1040   0.768E-02    0.480E-03
RMM:   4    -0.368566837647E+02   -0.95670E-06   -0.92422E-06   598   0.288E-02
  12 F= -.37463356E+02 E0= -.37463356E+02  d E =-.242700E-03
       N       E                     dE             d eps       ncg     rms          rms(c)
DAV:   1    -0.368564554973E+02    0.22731E-03   -0.38907E-02  1056   0.164E+00    0.127E-01
RMM:   2    -0.368557167285E+02    0.73877E-03   -0.88719E-04  1056   0.242E-01    0.686E-02
RMM:   3    -0.368554091900E+02    0.30754E-03   -0.10343E-03  1056   0.228E-01    0.142E-02
RMM:   4    -0.368554173801E+02   -0.81901E-05   -0.78118E-05   983   0.853E-02
  13 F= -.37464051E+02 E0= -.37464051E+02  d E =-.937617E-03
       N       E                     dE             d eps       ncg     rms          rms(c)
DAV:   1    -0.368568503725E+02   -0.14412E-02   -0.15673E-01  1056   0.330E+00    0.256E-01
RMM:   2    -0.368538547989E+02    0.29956E-02   -0.36007E-03  1056   0.487E-01    0.138E-01
RMM:   3    -0.368526130368E+02    0.12418E-02   -0.41682E-03  1056   0.459E-01    0.285E-02
RMM:   4    -0.368526456666E+02   -0.32630E-04   -0.31172E-04  1061   0.171E-01    0.285E-02
RMM:   5    -0.368526431982E+02    0.24684E-05   -0.34736E-05   841   0.555E-02
  14 F= -.37465228E+02 E0= -.37465228E+02  d E =-.211455E-02
       N       E                     dE             d eps       ncg     rms          rms(c)
DAV:   1    -0.368635901442E+02   -0.10944E-01   -0.64284E-01  1056   0.670E+00    0.536E-01
RMM:   2    -0.368510618970E+02    0.12528E-01   -0.15063E-02  1056   0.990E-01    0.287E-01
RMM:   3    -0.368459785489E+02    0.50833E-02   -0.17242E-02  1056   0.937E-01    0.568E-02
RMM:   4    -0.368461093807E+02   -0.13083E-03   -0.12846E-03  1061   0.349E-01    0.563E-02
RMM:   5    -0.368461000480E+02    0.93328E-05   -0.14260E-04  1055   0.113E-01    0.923E-03
RMM:   6    -0.368461139953E+02   -0.13947E-04   -0.31164E-05   816   0.535E-02    0.235E-02
RMM:   7    -0.368461196082E+02   -0.56129E-05   -0.81190E-06   667   0.264E-02
  15 F= -.37466737E+02 E0= -.37466737E+02  d E =-.362315E-02
       N       E                     dE             d eps       ncg     rms          rms(c)
DAV:   1    -0.368983499586E+02   -0.52236E-01   -0.26287E+00  1056   0.136E+01    0.108E+00
RMM:   2    -0.368483796074E+02    0.49970E-01   -0.60996E-02  1056   0.199E+00    0.576E-01
RMM:   3    -0.368281253587E+02    0.20254E-01   -0.67057E-02  1056   0.186E+00    0.113E-01
RMM:   4    -0.368286143742E+02   -0.48902E-03   -0.49296E-03  1058   0.685E-01    0.101E-01
RMM:   5    -0.368286391797E+02   -0.24805E-04   -0.61458E-04  1056   0.238E-01    0.540E-02
RMM:   6    -0.368286302705E+02    0.89091E-05   -0.16654E-04  1029   0.108E-01    0.164E-02
RMM:   7    -0.368286344399E+02   -0.41694E-05   -0.23012E-05   771   0.451E-02
  16 F= -.37465811E+02 E0= -.37465811E+02  d E =-.269730E-02
       N       E                     dE             d eps       ncg     rms          rms(c)
DAV:   1    -0.368578568379E+02   -0.29227E-01   -0.71659E-01  1120   0.703E+00    0.557E-01
RMM:   2    -0.368441390917E+02    0.13718E-01   -0.17400E-02  1056   0.106E+00    0.303E-01
RMM:   3    -0.368383354056E+02    0.58037E-02   -0.19703E-02  1056   0.996E-01    0.607E-02
RMM:   4    -0.368384917888E+02   -0.15638E-03   -0.15360E-03  1058   0.380E-01    0.743E-02
RMM:   5    -0.368385421100E+02   -0.50321E-04   -0.27813E-04  1057   0.150E-01    0.889E-02
RMM:   6    -0.368385712347E+02   -0.29125E-04   -0.97524E-05  1028   0.989E-02    0.135E-01
RMM:   7    -0.368388834051E+02   -0.31217E-03   -0.45153E-04  1119   0.175E-01    0.250E-01
RMM:   8    -0.368386803032E+02    0.20310E-03   -0.88938E-05  1041   0.761E-02    0.186E-01
RMM:   9    -0.368385683250E+02    0.11198E-03   -0.86643E-05  1056   0.806E-02    0.127E-01
RMM:  10    -0.368385133006E+02    0.55024E-04   -0.50481E-05   970   0.632E-02    0.876E-02
RMM:  11    -0.368384745660E+02    0.38735E-04   -0.57913E-05  1042   0.696E-02    0.386E-02
RMM:  12    -0.368384758928E+02   -0.13268E-05   -0.48260E-06   584   0.243E-02
  17 F= -.37466996E+02 E0= -.37466996E+02  d E =-.388234E-02
       N       E                     dE             d eps       ncg     rms          rms(c)
DAV:   1    -0.368391735922E+02   -0.69903E-03   -0.20412E-01  1108   0.388E+00    0.298E-01
RMM:   2    -0.368356344104E+02    0.35392E-02   -0.52280E-03  1056   0.595E-01    0.162E-01
RMM:   3    -0.368341889806E+02    0.14454E-02   -0.50942E-03  1056   0.523E-01    0.254E-02
RMM:   4    -0.368342275814E+02   -0.38601E-04   -0.38043E-04  1059   0.193E-01    0.199E-02
RMM:   5    -0.368342308678E+02   -0.32865E-05   -0.47632E-05   930   0.663E-02
  18 F= -.37467096E+02 E0= -.37467096E+02  d E =-.997225E-04
       N       E                     dE             d eps       ncg     rms          rms(c)
DAV:   1    -0.368379329130E+02   -0.37053E-02   -0.55608E-02  1108   0.201E+00    0.148E-01
RMM:   2    -0.368370075180E+02    0.92540E-03   -0.12824E-03  1056   0.305E-01    0.802E-02
RMM:   3    -0.368366239853E+02    0.38353E-03   -0.12924E-03  1056   0.262E-01    0.128E-02
RMM:   4    -0.368366331838E+02   -0.91984E-05   -0.96322E-05  1002   0.966E-02
  19 F= -.37467248E+02 E0= -.37467248E+02  d E =-.251761E-03
       N       E                     dE             d eps       ncg     rms          rms(c)
DAV:   1    -0.368364592304E+02    0.16475E-03   -0.41630E-04  1200   0.172E-01    0.108E-02
RMM:   2    -0.368364544434E+02    0.47870E-05   -0.69109E-06   577   0.234E-02
  20 F= -.37467255E+02 E0= -.37467255E+02  d E =-.258551E-03
       N       E                     dE             d eps       ncg     rms          rms(c)
DAV:   1    -0.368356568747E+02    0.80236E-03   -0.11099E-02  1088   0.905E-01    0.670E-02
RMM:   2    -0.368354653185E+02    0.19156E-03   -0.26352E-04  1056   0.138E-01    0.363E-02
RMM:   3    -0.368353867607E+02    0.78558E-04   -0.26639E-04  1056   0.119E-01    0.590E-03
RMM:   4    -0.368353889840E+02   -0.22233E-05   -0.20453E-05   734   0.442E-02
  21 F= -.37467220E+02 E0= -.37467220E+02  d E =-.223578E-03
