 vasp.6.5.1 10Mar25 (build May 31 2025 23:02:25) complex                        
  
 executed on             LinuxIFC date 2026.01.18  23:34:42
 running    4 mpi-ranks, with    1 threads/rank, on    1 nodes
 distrk:  each k-point on    4 cores,    1 groups
 distr:  one band on NCORE=   1 cores,    4 groups


--------------------------------------------------------------------------------------------------------


 INCAR:
   ENCUT = 520.000000
   KSPACING = 0.400000
   SIGMA = 0.050000
   EDIFF = 1.00e-05
   EDIFFG = -3.00e-02
   ALGO = fast
   GGA = PE
   PREC = accurate
   EFERMI = midgap
   IBRION = 2
   ISIF = 3
   ISMEAR = 0
   LORBIT = 11
   NSW = 100
   IVDW = 12
   LASPH = .TRUE.
   GGA_COMPAT = .FALSE.

 POTCAR:    PAW_PBE C 08Apr2002                   
 POTCAR:    PAW_PBE C 08Apr2002                   
   SHA256 =  253f7b50bb8d59471dbedb8285d89021f4a42ed1a2c5d38a03a736e69125dd95 C/POTCAR              
   COPYR  = (c) Copyright 08Apr2002 Georg Kresse                                                    
   COPYR  = This file is part of the software VASP. Any use, copying, and all other rights are regul
   COPYR  = If you do not have a valid VASP license, you may not use, copy or distribute this file. 
   VRHFIN =C: s2p2                                                                                  
   LEXCH  = PE                                                                                      
   EATOM  =   147.1560 eV,   10.8157 Ry                                                             
                                                                                                    
   TITEL  = PAW_PBE C 08Apr2002                                                                     
   LULTRA =        F    use ultrasoft PP ?                                                          
   IUNSCR =        1    unscreen: 0-lin 1-nonlin 2-no                                               
   RPACOR =    1.200    partial core radius                                                         
   POMASS =   12.011; ZVAL   =    4.000    mass and valenz                                          
   RCORE  =    1.500    outmost cutoff radius                                                       
   RWIGS  =    1.630; RWIGS  =    0.863    wigner-seitz radius (au A)                               
   ENMAX  =  400.000; ENMIN  =  300.000 eV                                                          
   ICORE  =        2    local potential                                                             
   LCOR   =        T    correct aug charges                                                         
   LPAW   =        T    paw PP                                                                      
   EAUG   =  644.873                                                                                
   DEXC   =    0.000                                                                                
   RMAX   =    1.529    core radius for proj-oper                                                   
   RAUG   =    1.300    factor for augmentation sphere                                              
   RDEP   =    1.501    radius for radial grids                                                     
   RDEPT  =    1.300    core radius for aug-charge                                                  
                                                                                                    
   Atomic configuration                                                                             
    4 entries                                                                                       
     n  l   j            E        occ.                                                              
     1  0  0.50      -273.3789   2.0000                                                             
     2  0  0.50       -13.7508   2.0000                                                             
     2  1  0.50        -5.2854   2.0000                                                             
     3  2  1.50        -5.4423   0.0000                                                             
   Description                                                                                      
     l       E           TYP  RCUT    TYP  RCUT                                                     
     0    -13.7508458     23  1.200                                                                 
     0     -8.2022199     23  1.200                                                                 
     1     -5.2854383     23  1.500                                                                 
     1     34.0145650     23  1.500                                                                 
     2     -5.4423304      7  1.500                                                                 
  local pseudopotential read in
  partial core-charges read in
  partial kinetic energy density read in
  atomic valenz-charges read in
  non local Contribution for L=           0  read in
    real space projection operators read in
  non local Contribution for L=           0  read in
    real space projection operators read in
  non local Contribution for L=           1  read in
    real space projection operators read in
  non local Contribution for L=           1  read in
    real space projection operators read in
    PAW grid and wavefunctions read in
 
   number of l-projection  operators is LMAX  =           4
   number of lm-projection operators is LMMAX =           8
 
  PAW_PBE C 08Apr2002                   :
 energy of atom  1       EATOM= -147.1560
 kinetic energy error for atom=    0.0071 (will be added to EATOM!!)
 
 
 POSCAR: C
  positions in cartesian coordinates
  No initial velocities read in
 IVDW         = 12
 VDW_S6       =    1.0000
 VDW_S8       =    0.7875
 VDW_A1       =    0.4289
 VDW_A2       =    4.4407
 VDW_RADIUS   =   50.2022 A
 VDW_CNRADIUS =   21.1671 A


 exchange-correlation table for PE
   RHO(1)=    0.500       N(1)  =     2000
   RHO(2)=  100.500       N(2)  =     4000
 


--------------------------------------------------------------------------------------------------------


 ion  position               nearest neighbor table
   1  0.167  0.000  1.000-   4 1.42   4 1.42   2 1.42
   2  0.833  0.000  0.000-   3 1.42   3 1.42   1 1.42
   3  0.667  0.500  1.000-   2 1.42   2 1.42   4 1.42
   4  0.333  0.500  0.000-   1 1.42   1 1.42   3 1.42
 
  LATTYP: Found a simple monoclinic cell.
 ALAT       =     3.7645254200
 B/A-ratio  =     0.6525563267
 C/A-ratio  =     1.1301930882
 COS(beta)  =    -0.3663329314
  
  Lattice vectors:
  
 A1 = (  -1.3790696323,   0.0000000000,   3.5028300825)
 A2 = (   0.0000000000,  -2.4565648800,   0.0000000000)
 A3 = (   4.2546406100,   0.0000000000,   0.0000000000)


Analysis of symmetry for initial positions (statically):
=====================================================================
 Subroutine PRICEL returns following result:
 
  LATTYP: Found a base centered monoclinic cell.
 ALAT       =     4.2546406100
 B/A-ratio  =     0.5773848146
 C/A-ratio  =     0.8848045617
 COS(beta)  =    -0.3663329314
  
  Lattice vectors:
  
 A1 = (   2.1273203050,  -1.2282824400,   0.0000000000)
 A2 = (   2.1273203050,   1.2282824400,   0.0000000000)
 A3 = (  -1.3790696323,   0.0000000000,   3.5028300825)
 
   2 primitive cells build up your supercell.
 

 Routine SETGRP: Setting up the symmetry group for a 
 simple monoclinic supercell.


 Subroutine GETGRP returns: Found  4 space group operations
 (whereof  4 operations were pure point group operations)
 out of a pool of  4 trial point group operations.


The static configuration has the point symmetry C_2h.


Analysis of symmetry for dynamics (positions and initial velocities):
=====================================================================
 Subroutine PRICEL returns following result:
 
  LATTYP: Found a base centered monoclinic cell.
 ALAT       =     4.2546406100
 B/A-ratio  =     0.5773848146
 C/A-ratio  =     0.8848045617
 COS(beta)  =    -0.3663329314
  
  Lattice vectors:
  
 A1 = (   2.1273203050,  -1.2282824400,   0.0000000000)
 A2 = (   2.1273203050,   1.2282824400,   0.0000000000)
 A3 = (  -1.3790696323,   0.0000000000,   3.5028300825)
 
   2 primitive cells build up your supercell.
 

 Routine SETGRP: Setting up the symmetry group for a 
 simple monoclinic supercell.


 Subroutine GETGRP returns: Found  4 space group operations
 (whereof  4 operations were pure point group operations)
 out of a pool of  4 trial point group operations.


The dynamic configuration has the point symmetry C_2h.


 Subroutine INISYM returns: Found  4 space group operations
 (whereof  4 operations are pure point group operations),
 and found     2 'primitive' translations


----------------------------------------------------------------------------------------

                                     Primitive cell                                     

  volume of cell :      18.3054

  direct lattice vectors                    reciprocal lattice vectors
     2.127320305 -1.228282440  0.000000000     0.235037478 -0.407072497  0.092534619
     2.127320305  1.228282440  0.000000000     0.235037478  0.407072497  0.092534619
    -1.379069632  0.000000000  3.502830083     0.000000000  0.000000000  0.285483445

  length of vectors
     2.456454647  2.456454647  3.764525420     0.479075453  0.479075453  0.285483445

  position of ions in fractional coordinates (direct lattice)
     0.166644470  0.166644470  0.999906960
     0.833355530  0.833355530  0.000093040

  ion indices of the primitive-cell ions
   primitive index   ion index
                 1           1
                 2           2

----------------------------------------------------------------------------------------

 
 -----------------------------------------------------------------------------
|                                                                             |
|           W    W    AA    RRRRR   N    N  II  N    N   GGGG   !!!           |
|           W    W   A  A   R    R  NN   N  II  NN   N  G    G  !!!           |
|           W    W  A    A  R    R  N N  N  II  N N  N  G       !!!           |
|           W WW W  AAAAAA  RRRRR   N  N N  II  N  N N  G  GGG   !            |
|           WW  WW  A    A  R   R   N   NN  II  N   NN  G    G                |
|           W    W  A    A  R    R  N    N  II  N    N   GGGG   !!!           |
|                                                                             |
|     The requested file  could not be found or opened for reading            |
|     k-point information. Automatic k-point generation is used as a          |
|     fallback, which may lead to unwanted results.                           |
|                                                                             |
 -----------------------------------------------------------------------------

 

Automatic generation of k-mesh.
 Grid dimensions derived from KSPACING:
 generate k-points for:    4    7    5

 Generating k-lattice:

  Cartesian coordinates                     Fractional coordinates (reciprocal lattice)
     0.058759370  0.000000000  0.023133655     0.250000000  0.000000000 -0.000000000
     0.000000000  0.058153214  0.000000000     0.000000000  0.142857143  0.000000000
     0.000000000  0.000000000  0.057096689     0.000000000  0.000000000  0.200000000

  Length of vectors
     0.063149264  0.058153214  0.057096689

  Shift w.r.t. Gamma in fractional coordinates (k-lattice)
     0.000000000  0.000000000  0.000000000

 
 Subroutine IBZKPT returns following result:
 ===========================================
 
 Found     44 irreducible k-points:
 
 Following reciprocal coordinates:
            Coordinates               Weight
  0.000000  0.000000  0.000000      1.000000
  0.250000  0.000000  0.000000      2.000000
  0.500000  0.000000  0.000000      1.000000
  0.000000  0.142857  0.000000      2.000000
  0.250000  0.142857  0.000000      4.000000
  0.500000  0.142857  0.000000      2.000000
  0.000000  0.285714  0.000000      2.000000
  0.250000  0.285714  0.000000      4.000000
  0.500000  0.285714  0.000000      2.000000
  0.000000  0.428571  0.000000      2.000000
  0.250000  0.428571  0.000000      4.000000
  0.500000  0.428571  0.000000      2.000000
  0.000000  0.000000  0.200000      2.000000
  0.250000  0.000000  0.200000      2.000000
  0.500000  0.000000  0.200000      2.000000
 -0.250000  0.000000  0.200000      2.000000
  0.000000  0.142857  0.200000      4.000000
  0.250000  0.142857  0.200000      4.000000
  0.500000  0.142857  0.200000      4.000000
 -0.250000  0.142857  0.200000      4.000000
  0.000000  0.285714  0.200000      4.000000
  0.250000  0.285714  0.200000      4.000000
  0.500000  0.285714  0.200000      4.000000
 -0.250000  0.285714  0.200000      4.000000
  0.000000  0.428571  0.200000      4.000000
  0.250000  0.428571  0.200000      4.000000
  0.500000  0.428571  0.200000      4.000000
 -0.250000  0.428571  0.200000      4.000000
  0.000000  0.000000  0.400000      2.000000
  0.250000  0.000000  0.400000      2.000000
  0.500000  0.000000  0.400000      2.000000
 -0.250000  0.000000  0.400000      2.000000
  0.000000  0.142857  0.400000      4.000000
  0.250000  0.142857  0.400000      4.000000
  0.500000  0.142857  0.400000      4.000000
 -0.250000  0.142857  0.400000      4.000000
  0.000000  0.285714  0.400000      4.000000
  0.250000  0.285714  0.400000      4.000000
  0.500000  0.285714  0.400000      4.000000
 -0.250000  0.285714  0.400000      4.000000
  0.000000  0.428571  0.400000      4.000000
  0.250000  0.428571  0.400000      4.000000
  0.500000  0.428571  0.400000      4.000000
 -0.250000  0.428571  0.400000      4.000000
 
 Following cartesian coordinates:
            Coordinates               Weight
  0.000000  0.000000  0.000000      1.000000
  0.058759  0.000000  0.023134      2.000000
  0.117519  0.000000  0.046267      1.000000
  0.000000  0.058153  0.000000      2.000000
  0.058759  0.058153  0.023134      4.000000
  0.117519  0.058153  0.046267      2.000000
  0.000000  0.116306  0.000000      2.000000
  0.058759  0.116306  0.023134      4.000000
  0.117519  0.116306  0.046267      2.000000
  0.000000  0.174460  0.000000      2.000000
  0.058759  0.174460  0.023134      4.000000
  0.117519  0.174460  0.046267      2.000000
  0.000000  0.000000  0.057097      2.000000
  0.058759  0.000000  0.080230      2.000000
  0.117519  0.000000  0.103364      2.000000
 -0.058759  0.000000  0.033963      2.000000
  0.000000  0.058153  0.057097      4.000000
  0.058759  0.058153  0.080230      4.000000
  0.117519  0.058153  0.103364      4.000000
 -0.058759  0.058153  0.033963      4.000000
  0.000000  0.116306  0.057097      4.000000
  0.058759  0.116306  0.080230      4.000000
  0.117519  0.116306  0.103364      4.000000
 -0.058759  0.116306  0.033963      4.000000
  0.000000  0.174460  0.057097      4.000000
  0.058759  0.174460  0.080230      4.000000
  0.117519  0.174460  0.103364      4.000000
 -0.058759  0.174460  0.033963      4.000000
  0.000000  0.000000  0.114193      2.000000
  0.058759  0.000000  0.137327      2.000000
  0.117519  0.000000  0.160461      2.000000
 -0.058759  0.000000  0.091060      2.000000
  0.000000  0.058153  0.114193      4.000000
  0.058759  0.058153  0.137327      4.000000
  0.117519  0.058153  0.160461      4.000000
 -0.058759  0.058153  0.091060      4.000000
  0.000000  0.116306  0.114193      4.000000
  0.058759  0.116306  0.137327      4.000000
  0.117519  0.116306  0.160461      4.000000
 -0.058759  0.116306  0.091060      4.000000
  0.000000  0.174460  0.114193      4.000000
  0.058759  0.174460  0.137327      4.000000
  0.117519  0.174460  0.160461      4.000000
 -0.058759  0.174460  0.091060      4.000000
 


--------------------------------------------------------------------------------------------------------




 Dimension of arrays:
   k-points           NKPTS =     44   k-points in BZ     NKDIM =     44   number of bands    NBANDS=     12
   number of dos      NEDOS =    301   number of ions     NIONS =      4
   non local maximal  LDIM  =      4   non local SUM 2l+1 LMDIM =      8
   total plane-waves  NPLWV =  16128
   max r-space proj   IRMAX =      1   max aug-charges    IRDMAX=   5397
   dimension x,y,z NGX =    32 NGY =   18 NGZ =   28
   dimension x,y,z NGXF=    64 NGYF=   36 NGZF=   56
   support grid    NGXF=    64 NGYF=   36 NGZF=   56
   ions per type =               4
   NGX,Y,Z   is equivalent  to a cutoff of  12.50, 12.18, 12.37 a.u.
   NGXF,Y,Z  is equivalent  to a cutoff of  25.01, 24.36, 24.73 a.u.

 SYSTEM =  unknown system                          
 POSCAR =  C                                       

 Startparameter for this run:
   NWRITE =      2    write-flag & timer
   PREC   = accura    normal or accurate (medium, high low for compatibility)
   ISTART =      0    job   : 0-new  1-cont  2-samecut
   ICHARG =      2    charge: 1-file 2-atom 10-const
   ISPIN  =      1    spin polarized calculation?
   LNONCOLLINEAR =      F non collinear calculations
   LSORBIT =      F    spin-orbit coupling
   INIWAV =      1    electr: 0-lowe 1-rand  2-diag
   LASPH  =      T    aspherical Exc in radial PAW
 Electronic Relaxation 1
   ENCUT  =  520.0 eV  38.22 Ry    6.18 a.u.   7.91  4.57  7.00*2*pi/ulx,y,z
   ENINI  =  520.0     initial cutoff
   ENAUG  =  644.9 eV  augmentation charge cutoff
   NELM   =     60;   NELMIN=  2; NELMDL= -5     # of ELM steps 
   EDIFF  = 0.1E-04   stopping-criterion for ELM
   LREAL  =      F    real-space projection
   NLSPLINE    = F    spline interpolate recip. space projectors
   LCOMPAT=      F    compatible to vasp.4.4
   GGA_COMPAT  = F    GGA compatible to vasp.4.4-vasp.4.6
   LMAXPAW     = -100 max onsite density
   LMAXMIX     =    2 max onsite mixed and CHGCAR
   VOSKOWN=      0    Vosko Wilk Nusair interpolation
   ROPT   =    0.00000
 Ionic relaxation
   EDIFFG = -.3E-01   stopping-criterion for IOM
   NSW    =    100    number of steps for IOM
   NBLOCK =      1;   KBLOCK =    100    inner block; outer block 
   IBRION =      2    ionic relax: 0-MD 1-quasi-New 2-CG
   NFREE  =      1    steps in history (QN), initial steepest desc. (CG)
   ISIF   =      3    stress and relaxation
   IWAVPR =     11    prediction:  0-non 1-charg 2-wave 3-comb
   ISYM   =      2    0-nonsym 1-usesym 2-fastsym
   LCORR  =      T    Harris-Foulkes like correction to forces

   POTIM  = 0.5000    time-step for ionic-motion
   TEIN   =    0.0    initial temperature
   TEBEG  =    0.0;   TEEND  =   0.0 temperature during run
   SMASS  =  -3.00    Nose mass-parameter (am)
   estimated Nose-frequenzy (Omega)   =  0.10E-29 period in steps = 0.13E+47 mass=  -0.414E-27a.u.
   SCALEE = 1.0000    scale energy and forces
   NPACO  =    256;   APACO  = 10.0  distance and # of slots for P.C.
   PSTRESS=    0.0 pullay stress

  Mass of Ions in am
   POMASS =  12.01
  Ionic Valenz
   ZVAL   =   4.00
  Atomic Wigner-Seitz radii
   RWIGS  =  -1.00
  virtual crystal weights 
   VCA    =   1.00
   NELECT =      16.0000    total number of electrons
   NUPDOWN=      -1.0000    fix difference up-down

 DOS related values:
   EMIN   =  10.00;   EMAX   =-10.00  energy-range for DOS
   EFERMI =   0.00;   METHOD = MIDGAP      
   ISMEAR =     0;   SIGMA  =   0.05  broadening in eV -4-tet -1-fermi 0-gaus
   EFERMI_NEDOS =   21; number of points for ismear=-14 and -15

 Electronic relaxation 2 (details)
   IALGO  =     68    algorithm
   LDIAG  =      T    sub-space diagonalisation (order eigenvalues)
   LSUBROT=      F    optimize rotation matrix (better conditioning)
   LROBUST=      F    robust break criterion during scf (extrapolated energy error)
   ISEARCH=      0    line search for conjugate gradient (0, 1=use gradient)
   TURBO    =      0    0=normal 1=particle mesh
   IRESTART =      0    0=no restart 2=restart with 2 vectors
   NREBOOT  =      0    no. of reboots
   NMIN     =      0    reboot dimension
   EREF     =   0.00    reference energy to select bands
   IMIX   =      4    mixing-type and parameters
     AMIX     =   0.40;   BMIX     =  1.00
     AMIX_MAG =   1.60;   BMIX_MAG =  1.00
     AMIN     =   0.10
     WC   =   100.;   INIMIX=   1;  MIXPRE=   1;  MAXMIX= -45

 Intra band minimization:
   WEIMIN = 0.0010     energy-eigenvalue tresh-hold
   EBREAK =  0.21E-06  absolut break condition
   DEPER  =   0.30     relativ break condition  

   TIME   =   0.40     timestep for ELM

  volume/ion in A,a.u.               =       9.15        61.77
  Fermi-wavevector in a.u.,A,eV,Ry     =   1.242352  2.347705 20.999765  1.543439
  Thomas-Fermi vector in A             =   2.376710
 
 Write flags
   LWAVE        =      T    write WAVECAR
   LDOWNSAMPLE  =      F    k-point downsampling of WAVECAR
   LCHARG       =      T    write CHGCAR
   LVTOT        =      F    write LOCPOT, total local potential
   LVHAR        =      F    write LOCPOT, Hartree potential only
   WRT_POTENTIAL= false  ! write potential to hdf5 file
   LELF         =      F    write electronic localiz. function (ELF)
   LORBIT       =     11    0 simple, 1 ext, 2 COOP (PROOUT), +10 PAW based schemes


 Python interface
   PLUGINS active      =      F    recompile with -DPLUGINS to activate
 
 Dipole corrections
   LMONO      =      F    monopole corrections only (constant potential shift)
   LDIPOL     =      F    correct potential (dipole corrections)
   IDIPOL     =      0    1-x, 2-y, 3-z, 4-all directions 
   EPSILON    =  1.0000000 bulk dielectric constant
   LVACPOTAV  =      F  vacuum potentials using an averaging scheme for the charge density
   VACPOTFLAT =  0.1000000 required flatness to determine vacuum potential
 
Coulomb truncation method
  LTRUNCATE          =      F  Coulomb kernel truncation to be used

 
 Exchange correlation treatment:
   GGA     = PE    functional components
   XC_C    = 1    coefficients multiplying the functional components
   LIBXC   =     F    Libxc                    
   VOSKOWN =     0    Vosko Wilk Nusair interpolation
   LHFCALC =     F    Hartree Fock is set to
   LHFONE  =     F    Hartree Fock one center treatment
   AEXX    =    0.0000 exact exchange contribution

 Parameters of functionals:
   PE:
     No parameter
 
 Van der Waals corrections
   IVDW    =    12    specifies the selected vdW correction

 Linear response parameters
   LEPSILON=     F    determine dielectric tensor
   LRPA    =     F    only Hartree local field effects (RPA)
   LNABLA  =     F    use nabla operator in PAW spheres
   LVEL    =     F    velocity operator in full k-point grid
   CSHIFT  =0.1000    complex shift for real part using Kramers Kronig
   OMEGAMAX=  -1.0    maximum frequency
   DEG_THRESHOLD= 0.2000000E-02 threshold for treating states as degnerate
   RTIME   =   -0.100 relaxation time in fs
  (WPLASMAI=    0.000 imaginary part of plasma frequency in eV, 0.658/RTIME)
   DFIELD  = 0.0000000 0.0000000 0.0000000 field for delta impulse in time
 
  Optional k-point grid parameters
   LKPOINTS_OPT  =     F    use optional k-point grid
   KPOINTS_OPT_MODE=     1    mode for optional k-point grid
 
 Orbital magnetization related:
   ORBITALMAG=     F  switch on orbital magnetization
   LCHIMAG   =     F  perturbation theory with respect to B field
   DQ        =  0.001000  dq finite difference perturbation B field
   LLRAUG    =     F  two centre corrections for induced B field
   LBONE     =     F  B-component reconstruction in AE one-centre
   LVGVCALC  =     T  calculate vGv susceptibility
   LVGVAPPL  =     F  apply vGv susceptibility instead of pGv for G=0

 Random number generation:
   RANDOM_GENERATOR = DEFAULT
   PCG_SEED         = not used


--------------------------------------------------------------------------------------------------------


 conjugate gradient relaxation of ions
 charge density and potential will be updated during run
 non-spin polarized calculation
 RMM-DIIS sequential band-by-band and
  variant of blocked Davidson during initial phase
 perform sub-space diagonalisation
    before iterative eigenvector-optimisation
 modified Broyden-mixing scheme, WC =      100.0
 initial mixing is a Kerker type mixing with AMIX =  0.4000 and BMIX =      1.0000
 Hartree-type preconditioning will be used
 using additional bands            4
 reciprocal scheme for non local part
 use partial core corrections
 calculate Harris-corrections to forces 
   (improved forces if not selfconsistent)
 use gradient corrections 
 use of overlap-Matrix (Vanderbilt PP)
 Gauss-broadening in eV      SIGMA  =   0.05


--------------------------------------------------------------------------------------------------------


  energy-cutoff  :      520.00
  volume of cell :       36.61
      direct lattice vectors                 reciprocal lattice vectors
     4.254640610  0.000000000  0.000000000     0.235037478  0.000000000  0.092534619
     0.000000000  2.456564880  0.000000000     0.000000000  0.407072497  0.000000000
    -1.379069632  0.000000000  3.502830083     0.000000000  0.000000000  0.285483445

  length of vectors
     4.254640610  2.456564880  3.764525420     0.252597055  0.407072497  0.285483445


 
 k-points in units of 2pi/SCALE and weight: read from INCAR                         
   0.00000000  0.00000000  0.00000000       0.007
   0.05875937  0.00000000  0.02313365       0.014
   0.11751874  0.00000000  0.04626731       0.007
   0.00000000  0.05815321  0.00000000       0.014
   0.05875937  0.05815321  0.02313365       0.029
   0.11751874  0.05815321  0.04626731       0.014
   0.00000000  0.11630643  0.00000000       0.014
   0.05875937  0.11630643  0.02313365       0.029
   0.11751874  0.11630643  0.04626731       0.014
   0.00000000  0.17445964  0.00000000       0.014
   0.05875937  0.17445964  0.02313365       0.029
   0.11751874  0.17445964  0.04626731       0.014
   0.00000000  0.00000000  0.05709669       0.014
   0.05875937  0.00000000  0.08023034       0.014
   0.11751874  0.00000000  0.10336400       0.014
  -0.05875937  0.00000000  0.03396303       0.014
   0.00000000  0.05815321  0.05709669       0.029
   0.05875937  0.05815321  0.08023034       0.029
   0.11751874  0.05815321  0.10336400       0.029
  -0.05875937  0.05815321  0.03396303       0.029
   0.00000000  0.11630643  0.05709669       0.029
   0.05875937  0.11630643  0.08023034       0.029
   0.11751874  0.11630643  0.10336400       0.029
  -0.05875937  0.11630643  0.03396303       0.029
   0.00000000  0.17445964  0.05709669       0.029
   0.05875937  0.17445964  0.08023034       0.029
   0.11751874  0.17445964  0.10336400       0.029
  -0.05875937  0.17445964  0.03396303       0.029
   0.00000000  0.00000000  0.11419338       0.014
   0.05875937  0.00000000  0.13732703       0.014
   0.11751874  0.00000000  0.16046069       0.014
  -0.05875937  0.00000000  0.09105972       0.014
   0.00000000  0.05815321  0.11419338       0.029
   0.05875937  0.05815321  0.13732703       0.029
   0.11751874  0.05815321  0.16046069       0.029
  -0.05875937  0.05815321  0.09105972       0.029
   0.00000000  0.11630643  0.11419338       0.029
   0.05875937  0.11630643  0.13732703       0.029
   0.11751874  0.11630643  0.16046069       0.029
  -0.05875937  0.11630643  0.09105972       0.029
   0.00000000  0.17445964  0.11419338       0.029
   0.05875937  0.17445964  0.13732703       0.029
   0.11751874  0.17445964  0.16046069       0.029
  -0.05875937  0.17445964  0.09105972       0.029
 
 k-points in reciprocal lattice and weights: read from INCAR                         
   0.00000000  0.00000000  0.00000000       0.007
   0.25000000  0.00000000  0.00000000       0.014
   0.50000000  0.00000000  0.00000000       0.007
   0.00000000  0.14285714  0.00000000       0.014
   0.25000000  0.14285714  0.00000000       0.029
   0.50000000  0.14285714  0.00000000       0.014
   0.00000000  0.28571429  0.00000000       0.014
   0.25000000  0.28571429  0.00000000       0.029
   0.50000000  0.28571429  0.00000000       0.014
   0.00000000  0.42857143  0.00000000       0.014
   0.25000000  0.42857143  0.00000000       0.029
   0.50000000  0.42857143  0.00000000       0.014
   0.00000000  0.00000000  0.20000000       0.014
   0.25000000  0.00000000  0.20000000       0.014
   0.50000000  0.00000000  0.20000000       0.014
  -0.25000000  0.00000000  0.20000000       0.014
   0.00000000  0.14285714  0.20000000       0.029
   0.25000000  0.14285714  0.20000000       0.029
   0.50000000  0.14285714  0.20000000       0.029
  -0.25000000  0.14285714  0.20000000       0.029
   0.00000000  0.28571429  0.20000000       0.029
   0.25000000  0.28571429  0.20000000       0.029
   0.50000000  0.28571429  0.20000000       0.029
  -0.25000000  0.28571429  0.20000000       0.029
   0.00000000  0.42857143  0.20000000       0.029
   0.25000000  0.42857143  0.20000000       0.029
   0.50000000  0.42857143  0.20000000       0.029
  -0.25000000  0.42857143  0.20000000       0.029
   0.00000000  0.00000000  0.40000000       0.014
   0.25000000  0.00000000  0.40000000       0.014
   0.50000000  0.00000000  0.40000000       0.014
  -0.25000000  0.00000000  0.40000000       0.014
   0.00000000  0.14285714  0.40000000       0.029
   0.25000000  0.14285714  0.40000000       0.029
   0.50000000  0.14285714  0.40000000       0.029
  -0.25000000  0.14285714  0.40000000       0.029
   0.00000000  0.28571429  0.40000000       0.029
   0.25000000  0.28571429  0.40000000       0.029
   0.50000000  0.28571429  0.40000000       0.029
  -0.25000000  0.28571429  0.40000000       0.029
   0.00000000  0.42857143  0.40000000       0.029
   0.25000000  0.42857143  0.40000000       0.029
   0.50000000  0.42857143  0.40000000       0.029
  -0.25000000  0.42857143  0.40000000       0.029
 
 position of ions in fractional coordinates (direct lattice) 
   0.16664447  0.00000000  0.99990696
   0.83335553  0.00000000  0.00009304
   0.66664447  0.50000000  0.99990696
   0.33335553  0.50000000  0.00009304
 
 position of ions in cartesian coordinates  (Angst):
  -0.66992899  0.00000000  3.50250418
   3.54549997  0.00000000  0.00032590
   1.45739131  1.22828244  3.50250418
   1.41817967  1.22828244  0.00032590
 


--------------------------------------------------------------------------------------------------------


 k-point     1 :   0.0000 0.0000 0.0000  plane waves:     983
 k-point     2 :   0.2500 0.0000 0.0000  plane waves:     993
 k-point     3 :   0.5000 0.0000 0.0000  plane waves:     996
 k-point     4 :   0.0000 0.1429 0.0000  plane waves:     993
 k-point     5 :   0.2500 0.1429 0.0000  plane waves:     980
 k-point     6 :   0.5000 0.1429 0.0000  plane waves:     990
 k-point     7 :   0.0000 0.2857 0.0000  plane waves:     983
 k-point     8 :   0.2500 0.2857 0.0000  plane waves:     984
 k-point     9 :   0.5000 0.2857 0.0000  plane waves:     982
 k-point    10 :   0.0000 0.4286 0.0000  plane waves:     971
 k-point    11 :   0.2500 0.4286 0.0000  plane waves:     972
 k-point    12 :   0.5000 0.4286 0.0000  plane waves:     964
 k-point    13 :   0.0000 0.0000 0.2000  plane waves:     987
 k-point    14 :   0.2500 0.0000 0.2000  plane waves:     989
 k-point    15 :   0.5000 0.0000 0.2000  plane waves:    1000
 k-point    16 :  -0.2500 0.0000 0.2000  plane waves:    1004
 k-point    17 :   0.0000 0.1429 0.2000  plane waves:     987
 k-point    18 :   0.2500 0.1429 0.2000  plane waves:     982
 k-point    19 :   0.5000 0.1429 0.2000  plane waves:     990
 k-point    20 :  -0.2500 0.1429 0.2000  plane waves:     991
 k-point    21 :   0.0000 0.2857 0.2000  plane waves:     980
 k-point    22 :   0.2500 0.2857 0.2000  plane waves:     986
 k-point    23 :   0.5000 0.2857 0.2000  plane waves:     986
 k-point    24 :  -0.2500 0.2857 0.2000  plane waves:     988
 k-point    25 :   0.0000 0.4286 0.2000  plane waves:     972
 k-point    26 :   0.2500 0.4286 0.2000  plane waves:     980
 k-point    27 :   0.5000 0.4286 0.2000  plane waves:     984
 k-point    28 :  -0.2500 0.4286 0.2000  plane waves:     973
 k-point    29 :   0.0000 0.0000 0.4000  plane waves:     974
 k-point    30 :   0.2500 0.0000 0.4000  plane waves:     983
 k-point    31 :   0.5000 0.0000 0.4000  plane waves:    1000
 k-point    32 :  -0.2500 0.0000 0.4000  plane waves:     991
 k-point    33 :   0.0000 0.1429 0.4000  plane waves:     985
 k-point    34 :   0.2500 0.1429 0.4000  plane waves:     991
 k-point    35 :   0.5000 0.1429 0.4000  plane waves:     999
 k-point    36 :  -0.2500 0.1429 0.4000  plane waves:     994
 k-point    37 :   0.0000 0.2857 0.4000  plane waves:     989
 k-point    38 :   0.2500 0.2857 0.4000  plane waves:     995
 k-point    39 :   0.5000 0.2857 0.4000  plane waves:     986
 k-point    40 :  -0.2500 0.2857 0.4000  plane waves:     984
 k-point    41 :   0.0000 0.4286 0.4000  plane waves:     980
 k-point    42 :   0.2500 0.4286 0.4000  plane waves:     983
 k-point    43 :   0.5000 0.4286 0.4000  plane waves:     983
 k-point    44 :  -0.2500 0.4286 0.4000  plane waves:     986

 maximum and minimum number of plane-waves per node :      1004      964

 maximum number of plane-waves:      1004
 maximum index in each direction: 
   IXMAX=    8   IYMAX=    4   IZMAX=    6
   IXMIN=   -8   IYMIN=   -4   IZMIN=   -7


 serial   3D FFT for wavefunctions
 parallel 3D FFT for charge:
    minimum data exchange during FFTs selected (reduces bandwidth)


 total amount of memory used by VASP MPI-rank0    38516. kBytes
=======================================================================

   base                                    :      30000. kBytes
   nonl-proj                               :       2891. kBytes
   fftplans                                :       1186. kBytes
   grid                                    :       2239. kBytes
   one-center                              :         12. kBytes
   wavefun                                 :       2188. kBytes
 
     INWAV:  cpu time      0.0000: real time      0.0001
 Broyden mixing: mesh for mixing (old mesh)
   NGX = 15   NGY =  9   NGZ = 13
  (NGX  = 64   NGY  = 36   NGZ  = 56)
  gives a total of   1755 points

 initial charge density was supplied:
 charge density of overlapping atoms calculated
 number of electron      16.0000000 magnetization 
 keeping initial charge density in first step


--------------------------------------------------------------------------------------------------------


 Maximum index for augmentation-charges         1265 (set IRDMAX)


--------------------------------------------------------------------------------------------------------


 First call to EWALD:  gamma=   0.534
 Maximum number of real-space cells   2x   4x   3
 Maximum number of reciprocal cells   3x   2x   3

    FEWALD:  cpu time      0.0008: real time      0.0008


--------------------------------------- Ionic step        1  -------------------------------------------




--------------------------------------- Iteration      1(   1)  ---------------------------------------


    POTLOK:  cpu time      0.0151: real time      0.0152
    SETDIJ:  cpu time      0.0298: real time      0.0298
     EDDAV:  cpu time      0.1475: real time      0.1482
       DOS:  cpu time      0.0002: real time      0.0003
    --------------------------------------------
      LOOP:  cpu time      0.1928: real time      0.1938

 eigenvalue-minimisations  :  1056
 total energy-change (2. order) : 0.3941028E+02  (-0.8002068E+03)
 number of electron      16.0000000 magnetization 
 augmentation part       16.0000000 magnetization 

 Free energy of the ion-electron system (eV)
  ---------------------------------------------------
  alpha Z        PSCENC =        35.90045876
  Ewald energy   TEWEN  =      -432.79365360
  -Hartree energ DENC   =      -167.35140529
  -exchange      EXHF   =         0.00000000
  -V(xc)+E(xc)   XCENC  =        53.03433291
  PAW double counting   =       434.08818552     -436.36580876
  entropy T*S    EENTRO =        -0.00116643
  eigenvalues    EBANDS =       -35.69623878
  atomic energy  EATOM  =       588.59557325
  Solvation  Ediel_sol  =         0.00000000
  ---------------------------------------------------
  free energy    TOTEN  =        39.41027757 eV

  energy without entropy =       39.41144400  energy(sigma->0) =       39.41086078


--------------------------------------------------------------------------------------------------------




--------------------------------------- Iteration      1(   2)  ---------------------------------------


     EDDAV:  cpu time      0.1887: real time      0.1898
       DOS:  cpu time      0.0001: real time      0.0001
    --------------------------------------------
      LOOP:  cpu time      0.1888: real time      0.1899

 eigenvalue-minimisations  :  1488
 total energy-change (2. order) :-0.7527160E+02  (-0.6899756E+02)
 number of electron      16.0000000 magnetization 
 augmentation part       16.0000000 magnetization 

 Free energy of the ion-electron system (eV)
  ---------------------------------------------------
  alpha Z        PSCENC =        35.90045876
  Ewald energy   TEWEN  =      -432.79365360
  -Hartree energ DENC   =      -167.35140529
  -exchange      EXHF   =         0.00000000
  -V(xc)+E(xc)   XCENC  =        53.03433291
  PAW double counting   =       434.08818552     -436.36580876
  entropy T*S    EENTRO =        -0.00000000
  eigenvalues    EBANDS =      -110.96900254
  atomic energy  EATOM  =       588.59557325
  Solvation  Ediel_sol  =         0.00000000
  ---------------------------------------------------
  free energy    TOTEN  =       -35.86131975 eV

  energy without entropy =      -35.86131975  energy(sigma->0) =      -35.86131975


--------------------------------------------------------------------------------------------------------




--------------------------------------- Iteration      1(   3)  ---------------------------------------


     EDDAV:  cpu time      0.1711: real time      0.1721
       DOS:  cpu time      0.0001: real time      0.0001
    --------------------------------------------
      LOOP:  cpu time      0.1712: real time      0.1722

 eigenvalue-minimisations  :  1328
 total energy-change (2. order) :-0.3431064E+01  (-0.3406046E+01)
 number of electron      16.0000000 magnetization 
 augmentation part       16.0000000 magnetization 

 Free energy of the ion-electron system (eV)
  ---------------------------------------------------
  alpha Z        PSCENC =        35.90045876
  Ewald energy   TEWEN  =      -432.79365360
  -Hartree energ DENC   =      -167.35140529
  -exchange      EXHF   =         0.00000000
  -V(xc)+E(xc)   XCENC  =        53.03433291
  PAW double counting   =       434.08818552     -436.36580876
  entropy T*S    EENTRO =        -0.00000000
  eigenvalues    EBANDS =      -114.40006611
  atomic energy  EATOM  =       588.59557325
  Solvation  Ediel_sol  =         0.00000000
  ---------------------------------------------------
  free energy    TOTEN  =       -39.29238333 eV

  energy without entropy =      -39.29238333  energy(sigma->0) =      -39.29238333


--------------------------------------------------------------------------------------------------------




--------------------------------------- Iteration      1(   4)  ---------------------------------------


     EDDAV:  cpu time      0.1720: real time      0.1730
       DOS:  cpu time      0.0001: real time      0.0001
    --------------------------------------------
      LOOP:  cpu time      0.1722: real time      0.1732

 eigenvalue-minimisations  :  1340
 total energy-change (2. order) :-0.4451118E-01  (-0.4445941E-01)
 number of electron      16.0000000 magnetization 
 augmentation part       16.0000000 magnetization 

 Free energy of the ion-electron system (eV)
  ---------------------------------------------------
  alpha Z        PSCENC =        35.90045876
  Ewald energy   TEWEN  =      -432.79365360
  -Hartree energ DENC   =      -167.35140529
  -exchange      EXHF   =         0.00000000
  -V(xc)+E(xc)   XCENC  =        53.03433291
  PAW double counting   =       434.08818552     -436.36580876
  entropy T*S    EENTRO =        -0.00000000
  eigenvalues    EBANDS =      -114.44457730
  atomic energy  EATOM  =       588.59557325
  Solvation  Ediel_sol  =         0.00000000
  ---------------------------------------------------
  free energy    TOTEN  =       -39.33689451 eV

  energy without entropy =      -39.33689451  energy(sigma->0) =      -39.33689451


--------------------------------------------------------------------------------------------------------




--------------------------------------- Iteration      1(   5)  ---------------------------------------


     EDDAV:  cpu time      0.1726: real time      0.1736
       DOS:  cpu time      0.0001: real time      0.0001
    CHARGE:  cpu time      0.0132: real time      0.0133
    MIXING:  cpu time      0.0008: real time      0.0008
    --------------------------------------------
      LOOP:  cpu time      0.1866: real time      0.1877

 eigenvalue-minimisations  :  1348
 total energy-change (2. order) :-0.1080252E-02  (-0.1080066E-02)
 number of electron      16.0000004 magnetization 
 augmentation part        0.4304140 magnetization 

 Broyden mixing:
  rms(total) = 0.90543E+00    rms(broyden)= 0.90530E+00
  rms(prec ) = 0.19275E+01
  weight for this iteration     100.00

 Free energy of the ion-electron system (eV)
  ---------------------------------------------------
  alpha Z        PSCENC =        35.90045876
  Ewald energy   TEWEN  =      -432.79365360
  -Hartree energ DENC   =      -167.35140529
  -exchange      EXHF   =         0.00000000
  -V(xc)+E(xc)   XCENC  =        53.03433291
  PAW double counting   =       434.08818552     -436.36580876
  entropy T*S    EENTRO =        -0.00000000
  eigenvalues    EBANDS =      -114.44565755
  atomic energy  EATOM  =       588.59557325
  Solvation  Ediel_sol  =         0.00000000
  ---------------------------------------------------
  free energy    TOTEN  =       -39.33797477 eV

  energy without entropy =      -39.33797477  energy(sigma->0) =      -39.33797477


--------------------------------------------------------------------------------------------------------




--------------------------------------- Iteration      1(   6)  ---------------------------------------


    POTLOK:  cpu time      0.0151: real time      0.0152
    SETDIJ:  cpu time      0.0296: real time      0.0297
    EDDIAG:  cpu time      0.0344: real time      0.0346
  RMM-DIIS:  cpu time      0.0913: real time      0.0916
    ORTHCH:  cpu time      0.0041: real time      0.0041
       DOS:  cpu time      0.0001: real time      0.0001
    CHARGE:  cpu time      0.0135: real time      0.0136
    MIXING:  cpu time      0.0009: real time      0.0009
    --------------------------------------------
      LOOP:  cpu time      0.1891: real time      0.1899

 eigenvalue-minimisations  :  1056
 total energy-change (2. order) : 0.1895547E+01  (-0.1684099E+00)
 number of electron      16.0000004 magnetization 
 augmentation part        0.4163999 magnetization 

 Broyden mixing:
  rms(total) = 0.52735E+00    rms(broyden)= 0.52734E+00
  rms(prec ) = 0.10468E+01
  weight for this iteration     100.00

 eigenvalues of (default mixing * dielectric matrix)
  average eigenvalue GAMMA=   2.2746
  2.2746

 Free energy of the ion-electron system (eV)
  ---------------------------------------------------
  alpha Z        PSCENC =        35.90045876
  Ewald energy   TEWEN  =      -432.79365360
  -Hartree energ DENC   =      -184.65999953
  -exchange      EXHF   =         0.00000000
  -V(xc)+E(xc)   XCENC  =        54.06258187
  PAW double counting   =       803.42190577     -806.00785719
  entropy T*S    EENTRO =        -0.00000000
  eigenvalues    EBANDS =       -95.96143669
  atomic energy  EATOM  =       588.59557325
  Solvation  Ediel_sol  =         0.00000000
  ---------------------------------------------------
  free energy    TOTEN  =       -37.44242737 eV

  energy without entropy =      -37.44242737  energy(sigma->0) =      -37.44242737


--------------------------------------------------------------------------------------------------------




--------------------------------------- Iteration      1(   7)  ---------------------------------------


    POTLOK:  cpu time      0.0148: real time      0.0149
    SETDIJ:  cpu time      0.0296: real time      0.0297
    EDDIAG:  cpu time      0.0346: real time      0.0348
  RMM-DIIS:  cpu time      0.0912: real time      0.0915
    ORTHCH:  cpu time      0.0041: real time      0.0041
       DOS:  cpu time      0.0001: real time      0.0001
    CHARGE:  cpu time      0.0130: real time      0.0130
    MIXING:  cpu time      0.0008: real time      0.0008
    --------------------------------------------
      LOOP:  cpu time      0.1881: real time      0.1889

 eigenvalue-minimisations  :  1062
 total energy-change (2. order) : 0.5993253E+00  (-0.2884992E+00)
 number of electron      16.0000003 magnetization 
 augmentation part        0.3936796 magnetization 

 Broyden mixing:
  rms(total) = 0.13652E+00    rms(broyden)= 0.13643E+00
  rms(prec ) = 0.17675E+00
  weight for this iteration     100.00

 eigenvalues of (default mixing * dielectric matrix)
  average eigenvalue GAMMA=   2.8950
  2.5328  3.2572

 Free energy of the ion-electron system (eV)
  ---------------------------------------------------
  alpha Z        PSCENC =        35.90045876
  Ewald energy   TEWEN  =      -432.79365360
  -Hartree energ DENC   =      -205.91408807
  -exchange      EXHF   =         0.00000000
  -V(xc)+E(xc)   XCENC  =        55.37458448
  PAW double counting   =      1485.09471427    -1487.98207113
  entropy T*S    EENTRO =        -0.00000000
  eigenvalues    EBANDS =       -75.11862004
  atomic energy  EATOM  =       588.59557325
  Solvation  Ediel_sol  =         0.00000000
  ---------------------------------------------------
  free energy    TOTEN  =       -36.84310209 eV

  energy without entropy =      -36.84310209  energy(sigma->0) =      -36.84310209


--------------------------------------------------------------------------------------------------------




--------------------------------------- Iteration      1(   8)  ---------------------------------------


    POTLOK:  cpu time      0.0148: real time      0.0149
    SETDIJ:  cpu time      0.0298: real time      0.0299
    EDDIAG:  cpu time      0.0346: real time      0.0348
  RMM-DIIS:  cpu time      0.0911: real time      0.0914
    ORTHCH:  cpu time      0.0040: real time      0.0040
       DOS:  cpu time      0.0001: real time      0.0001
    CHARGE:  cpu time      0.0128: real time      0.0128
    MIXING:  cpu time      0.0008: real time      0.0008
    --------------------------------------------
      LOOP:  cpu time      0.1881: real time      0.1888

 eigenvalue-minimisations  :  1056
 total energy-change (2. order) :-0.2823611E-01  (-0.2194653E-01)
 number of electron      16.0000003 magnetization 
 augmentation part        0.3925493 magnetization 

 Broyden mixing:
  rms(total) = 0.57821E-01    rms(broyden)= 0.57813E-01
  rms(prec ) = 0.14062E+00
  weight for this iteration     100.00

 eigenvalues of (default mixing * dielectric matrix)
  average eigenvalue GAMMA=   1.8992
  0.9241  2.5528  2.2209

 Free energy of the ion-electron system (eV)
  ---------------------------------------------------
  alpha Z        PSCENC =        35.90045876
  Ewald energy   TEWEN  =      -432.79365360
  -Hartree energ DENC   =      -201.36341047
  -exchange      EXHF   =         0.00000000
  -V(xc)+E(xc)   XCENC  =        55.11419254
  PAW double counting   =      1670.70621079    -1673.40560327
  entropy T*S    EENTRO =        -0.00000000
  eigenvalues    EBANDS =       -79.62510619
  atomic energy  EATOM  =       588.59557325
  Solvation  Ediel_sol  =         0.00000000
  ---------------------------------------------------
  free energy    TOTEN  =       -36.87133820 eV

  energy without entropy =      -36.87133820  energy(sigma->0) =      -36.87133820


--------------------------------------------------------------------------------------------------------




--------------------------------------- Iteration      1(   9)  ---------------------------------------


    POTLOK:  cpu time      0.0147: real time      0.0149
    SETDIJ:  cpu time      0.0296: real time      0.0296
    EDDIAG:  cpu time      0.0344: real time      0.0346
  RMM-DIIS:  cpu time      0.0911: real time      0.0913
    ORTHCH:  cpu time      0.0041: real time      0.0041
       DOS:  cpu time      0.0001: real time      0.0001
    CHARGE:  cpu time      0.0130: real time      0.0131
    MIXING:  cpu time      0.0008: real time      0.0008
    --------------------------------------------
      LOOP:  cpu time      0.1878: real time      0.1885

 eigenvalue-minimisations  :  1056
 total energy-change (2. order) : 0.1264199E-01  (-0.4952647E-02)
 number of electron      16.0000003 magnetization 
 augmentation part        0.3903446 magnetization 

 Broyden mixing:
  rms(total) = 0.98580E-02    rms(broyden)= 0.98462E-02
  rms(prec ) = 0.24039E-01
  weight for this iteration     100.00

 eigenvalues of (default mixing * dielectric matrix)
  average eigenvalue GAMMA=   1.4302
  2.5529  2.2209  0.9232  0.0240

 Free energy of the ion-electron system (eV)
  ---------------------------------------------------
  alpha Z        PSCENC =        35.90045876
  Ewald energy   TEWEN  =      -432.79365360
  -Hartree energ DENC   =      -203.95462374
  -exchange      EXHF   =         0.00000000
  -V(xc)+E(xc)   XCENC  =        55.27097016
  PAW double counting   =      1691.88702312    -1694.64426916
  entropy T*S    EENTRO =        -0.00000000
  eigenvalues    EBANDS =       -77.12017499
  atomic energy  EATOM  =       588.59557325
  Solvation  Ediel_sol  =         0.00000000
  ---------------------------------------------------
  free energy    TOTEN  =       -36.85869621 eV

  energy without entropy =      -36.85869621  energy(sigma->0) =      -36.85869621


--------------------------------------------------------------------------------------------------------




--------------------------------------- Iteration      1(  10)  ---------------------------------------


    POTLOK:  cpu time      0.0148: real time      0.0150
    SETDIJ:  cpu time      0.0298: real time      0.0299
    EDDIAG:  cpu time      0.0345: real time      0.0347
  RMM-DIIS:  cpu time      0.0959: real time      0.0962
    ORTHCH:  cpu time      0.0044: real time      0.0044
       DOS:  cpu time      0.0001: real time      0.0001
    CHARGE:  cpu time      0.0147: real time      0.0147
    MIXING:  cpu time      0.0011: real time      0.0011
    --------------------------------------------
      LOOP:  cpu time      0.1952: real time      0.1960

 eigenvalue-minimisations  :  1067
 total energy-change (2. order) :-0.9947782E-03  (-0.9961804E-03)
 number of electron      16.0000003 magnetization 
 augmentation part        0.3889179 magnetization 

 Broyden mixing:
  rms(total) = 0.85468E-02    rms(broyden)= 0.85424E-02
  rms(prec ) = 0.19962E-01
  weight for this iteration     100.00

 eigenvalues of (default mixing * dielectric matrix)
  average eigenvalue GAMMA=   1.4949
  2.4485  2.1035  0.9669  0.9669  0.9888

 Free energy of the ion-electron system (eV)
  ---------------------------------------------------
  alpha Z        PSCENC =        35.90045876
  Ewald energy   TEWEN  =      -432.79365360
  -Hartree energ DENC   =      -203.99560849
  -exchange      EXHF   =         0.00000000
  -V(xc)+E(xc)   XCENC  =        55.27332599
  PAW double counting   =      1691.99816585    -1694.75520704
  entropy T*S    EENTRO =        -0.00000000
  eigenvalues    EBANDS =       -77.08274569
  atomic energy  EATOM  =       588.59557325
  Solvation  Ediel_sol  =         0.00000000
  ---------------------------------------------------
  free energy    TOTEN  =       -36.85969098 eV

  energy without entropy =      -36.85969098  energy(sigma->0) =      -36.85969098


--------------------------------------------------------------------------------------------------------




--------------------------------------- Iteration      1(  11)  ---------------------------------------


    POTLOK:  cpu time      0.0153: real time      0.0154
    SETDIJ:  cpu time      0.0297: real time      0.0298
    EDDIAG:  cpu time      0.0351: real time      0.0353
  RMM-DIIS:  cpu time      0.0912: real time      0.0915
    ORTHCH:  cpu time      0.0041: real time      0.0041
       DOS:  cpu time      0.0001: real time      0.0001
    CHARGE:  cpu time      0.0130: real time      0.0130
    MIXING:  cpu time      0.0008: real time      0.0009
    --------------------------------------------
      LOOP:  cpu time      0.1894: real time      0.1902

 eigenvalue-minimisations  :  1058
 total energy-change (2. order) :-0.2232049E-03  (-0.3917280E-03)
 number of electron      16.0000003 magnetization 
 augmentation part        0.3881555 magnetization 

 Broyden mixing:
  rms(total) = 0.16986E-01    rms(broyden)= 0.16985E-01
  rms(prec ) = 0.24158E-01
  weight for this iteration     100.00

 eigenvalues of (default mixing * dielectric matrix)
  average eigenvalue GAMMA=   1.8765
  3.0934  2.8160  1.8705  1.4708  1.0042  1.0042

 Free energy of the ion-electron system (eV)
  ---------------------------------------------------
  alpha Z        PSCENC =        35.90045876
  Ewald energy   TEWEN  =      -432.79365360
  -Hartree energ DENC   =      -204.34913522
  -exchange      EXHF   =         0.00000000
  -V(xc)+E(xc)   XCENC  =        55.29446622
  PAW double counting   =      1680.45622760    -1683.22896026
  entropy T*S    EENTRO =        -0.00000000
  eigenvalues    EBANDS =       -76.73489093
  atomic energy  EATOM  =       588.59557325
  Solvation  Ediel_sol  =         0.00000000
  ---------------------------------------------------
  free energy    TOTEN  =       -36.85991419 eV

  energy without entropy =      -36.85991419  energy(sigma->0) =      -36.85991419


--------------------------------------------------------------------------------------------------------




--------------------------------------- Iteration      1(  12)  ---------------------------------------


    POTLOK:  cpu time      0.0148: real time      0.0150
    SETDIJ:  cpu time      0.0295: real time      0.0295
    EDDIAG:  cpu time      0.0348: real time      0.0349
  RMM-DIIS:  cpu time      0.0910: real time      0.0913
    ORTHCH:  cpu time      0.0040: real time      0.0040
       DOS:  cpu time      0.0001: real time      0.0001
    CHARGE:  cpu time      0.0129: real time      0.0129
    MIXING:  cpu time      0.0008: real time      0.0009
    --------------------------------------------
      LOOP:  cpu time      0.1880: real time      0.1887

 eigenvalue-minimisations  :  1056
 total energy-change (2. order) :-0.3152380E-03  (-0.1821849E-03)
 number of electron      16.0000003 magnetization 
 augmentation part        0.3881186 magnetization 

 Broyden mixing:
  rms(total) = 0.22041E-01    rms(broyden)= 0.22041E-01
  rms(prec ) = 0.31103E-01
  weight for this iteration     100.00

 eigenvalues of (default mixing * dielectric matrix)
  average eigenvalue GAMMA=   1.6644
  3.2949  2.5756  2.0904  1.0571  0.9074  0.8627  0.8627

 Free energy of the ion-electron system (eV)
  ---------------------------------------------------
  alpha Z        PSCENC =        35.90045876
  Ewald energy   TEWEN  =      -432.79365360
  -Hartree energ DENC   =      -204.22539526
  -exchange      EXHF   =         0.00000000
  -V(xc)+E(xc)   XCENC  =        55.28268734
  PAW double counting   =      1723.22635550    -1725.94911177
  entropy T*S    EENTRO =        -0.00000000
  eigenvalues    EBANDS =       -76.89714364
  atomic energy  EATOM  =       588.59557325
  Solvation  Ediel_sol  =         0.00000000
  ---------------------------------------------------
  free energy    TOTEN  =       -36.86022943 eV

  energy without entropy =      -36.86022943  energy(sigma->0) =      -36.86022943


--------------------------------------------------------------------------------------------------------




--------------------------------------- Iteration      1(  13)  ---------------------------------------


    POTLOK:  cpu time      0.0147: real time      0.0149
    SETDIJ:  cpu time      0.0296: real time      0.0296
    EDDIAG:  cpu time      0.0346: real time      0.0348
  RMM-DIIS:  cpu time      0.0915: real time      0.0918
    ORTHCH:  cpu time      0.0042: real time      0.0042
       DOS:  cpu time      0.0001: real time      0.0001
    CHARGE:  cpu time      0.0130: real time      0.0130
    MIXING:  cpu time      0.0009: real time      0.0009
    --------------------------------------------
      LOOP:  cpu time      0.1886: real time      0.1894

 eigenvalue-minimisations  :  1059
 total energy-change (2. order) : 0.4497285E-04  (-0.1955289E-04)
 number of electron      16.0000003 magnetization 
 augmentation part        0.3880983 magnetization 

 Broyden mixing:
  rms(total) = 0.17950E-01    rms(broyden)= 0.17950E-01
  rms(prec ) = 0.25584E-01
  weight for this iteration     100.00

 eigenvalues of (default mixing * dielectric matrix)
  average eigenvalue GAMMA=   1.6193
  3.2142  2.6828  2.0378  0.9849  0.9849  1.0091  1.0204  1.0204

 Free energy of the ion-electron system (eV)
  ---------------------------------------------------
  alpha Z        PSCENC =        35.90045876
  Ewald energy   TEWEN  =      -432.79365360
  -Hartree energ DENC   =      -204.18549482
  -exchange      EXHF   =         0.00000000
  -V(xc)+E(xc)   XCENC  =        55.28154882
  PAW double counting   =      1717.48629230    -1720.21479333
  entropy T*S    EENTRO =        -0.00000000
  eigenvalues    EBANDS =       -76.93011582
  atomic energy  EATOM  =       588.59557325
  Solvation  Ediel_sol  =         0.00000000
  ---------------------------------------------------
  free energy    TOTEN  =       -36.86018445 eV

  energy without entropy =      -36.86018445  energy(sigma->0) =      -36.86018445


--------------------------------------------------------------------------------------------------------




--------------------------------------- Iteration      1(  14)  ---------------------------------------


    POTLOK:  cpu time      0.0148: real time      0.0149
    SETDIJ:  cpu time      0.0297: real time      0.0298
    EDDIAG:  cpu time      0.0346: real time      0.0348
  RMM-DIIS:  cpu time      0.0908: real time      0.0911
    ORTHCH:  cpu time      0.0040: real time      0.0040
       DOS:  cpu time      0.0001: real time      0.0001
    CHARGE:  cpu time      0.0129: real time      0.0129
    MIXING:  cpu time      0.0009: real time      0.0009
    --------------------------------------------
      LOOP:  cpu time      0.1878: real time      0.1885

 eigenvalue-minimisations  :  1056
 total energy-change (2. order) : 0.1794353E-03  (-0.1552922E-04)
 number of electron      16.0000003 magnetization 
 augmentation part        0.3879873 magnetization 

 Broyden mixing:
  rms(total) = 0.73237E-02    rms(broyden)= 0.73237E-02
  rms(prec ) = 0.11285E-01
  weight for this iteration     100.00

 eigenvalues of (default mixing * dielectric matrix)
  average eigenvalue GAMMA=   1.5642
  2.7827  2.5128  2.0334  1.2912  1.2912  1.0154  1.0154  1.2028  0.9331

 Free energy of the ion-electron system (eV)
  ---------------------------------------------------
  alpha Z        PSCENC =        35.90045876
  Ewald energy   TEWEN  =      -432.79365360
  -Hartree energ DENC   =      -204.23894000
  -exchange      EXHF   =         0.00000000
  -V(xc)+E(xc)   XCENC  =        55.28640319
  PAW double counting   =      1705.00728022    -1707.74795959
  entropy T*S    EENTRO =        -0.00000000
  eigenvalues    EBANDS =       -76.86916724
  atomic energy  EATOM  =       588.59557325
  Solvation  Ediel_sol  =         0.00000000
  ---------------------------------------------------
  free energy    TOTEN  =       -36.86000502 eV

  energy without entropy =      -36.86000502  energy(sigma->0) =      -36.86000502


--------------------------------------------------------------------------------------------------------




--------------------------------------- Iteration      1(  15)  ---------------------------------------


    POTLOK:  cpu time      0.0148: real time      0.0149
    SETDIJ:  cpu time      0.0296: real time      0.0297
    EDDIAG:  cpu time      0.0345: real time      0.0347
  RMM-DIIS:  cpu time      0.0917: real time      0.0919
    ORTHCH:  cpu time      0.0042: real time      0.0042
       DOS:  cpu time      0.0001: real time      0.0001
    CHARGE:  cpu time      0.0130: real time      0.0131
    MIXING:  cpu time      0.0009: real time      0.0009
    --------------------------------------------
      LOOP:  cpu time      0.1888: real time      0.1895

 eigenvalue-minimisations  :  1056
 total energy-change (2. order) : 0.4522230E-04  (-0.9488810E-05)
 number of electron      16.0000003 magnetization 
 augmentation part        0.3878307 magnetization 

 Broyden mixing:
  rms(total) = 0.32464E-02    rms(broyden)= 0.32463E-02
  rms(prec ) = 0.48215E-02
  weight for this iteration     100.00

 eigenvalues of (default mixing * dielectric matrix)
  average eigenvalue GAMMA=   1.4082
  2.7822  2.5130  2.0333  1.2905  1.2905  1.2030  0.9332  1.0156  1.0156  0.0055

 Free energy of the ion-electron system (eV)
  ---------------------------------------------------
  alpha Z        PSCENC =        35.90045876
  Ewald energy   TEWEN  =      -432.79365360
  -Hartree energ DENC   =      -204.30409178
  -exchange      EXHF   =         0.00000000
  -V(xc)+E(xc)   XCENC  =        55.29064960
  PAW double counting   =      1702.02707574    -1704.77267128
  entropy T*S    EENTRO =        -0.00000000
  eigenvalues    EBANDS =       -76.80330049
  atomic energy  EATOM  =       588.59557325
  Solvation  Ediel_sol  =         0.00000000
  ---------------------------------------------------
  free energy    TOTEN  =       -36.85995980 eV

  energy without entropy =      -36.85995980  energy(sigma->0) =      -36.85995980


--------------------------------------------------------------------------------------------------------




--------------------------------------- Iteration      1(  16)  ---------------------------------------


    POTLOK:  cpu time      0.0147: real time      0.0149
    SETDIJ:  cpu time      0.0298: real time      0.0299
    EDDIAG:  cpu time      0.0345: real time      0.0347
  RMM-DIIS:  cpu time      0.0727: real time      0.0730
    ORTHCH:  cpu time      0.0040: real time      0.0040
       DOS:  cpu time      0.0001: real time      0.0001
    --------------------------------------------
      LOOP:  cpu time      0.1561: real time      0.1568

 eigenvalue-minimisations  :   737
 total energy-change (2. order) : 0.6061170E-05  (-0.1962439E-05)
 number of electron      16.0000003 magnetization 
 augmentation part        0.3878307 magnetization 

 Free energy of the ion-electron system (eV)
  ---------------------------------------------------
  alpha Z        PSCENC =        35.90045876
  Ewald energy   TEWEN  =      -432.79365360
  -Hartree energ DENC   =      -204.32522305
  -exchange      EXHF   =         0.00000000
  -V(xc)+E(xc)   XCENC  =        55.29206476
  PAW double counting   =      1700.71914532    -1703.46632989
  entropy T*S    EENTRO =        -0.00000000
  eigenvalues    EBANDS =       -76.78198929
  atomic energy  EATOM  =       588.59557325
  Solvation  Ediel_sol  =         0.00000000
  ---------------------------------------------------
  free energy    TOTEN  =       -36.85995374 eV

  energy without entropy =      -36.85995374  energy(sigma->0) =      -36.85995374


--------------------------------------------------------------------------------------------------------




 average (electrostatic) potential at core
  the test charge radii are     0.6991
  (the norm of the test charge is              1.0000)
       1 -51.0322       2 -51.0322       3 -51.0322       4 -51.0322
 
 
 
 E-fermi :   4.3991     XC(G=0): -10.0459     alpha+bet :-10.9501

 WARNING: Could not determine fundamental gap because eigenvalues are not
     sorted.

 Fermi energy:         4.3990670298

 k-point     1 :       0.0000    0.0000    0.0000
  band No.  band energies     occupation 
      1     -15.3301      2.00000
      2      -9.8886      2.00000
      3      -8.9033      2.00000
      4      -2.4788      2.00000
      5      -2.0760      2.00000
      6       1.3564      2.00000
      7       1.3622      2.00000
      8       1.7488      2.00000
      9       5.7828      0.00000
     10       8.2889      0.00000
     11      11.7409      0.00000
     12      12.7902      0.00000

 k-point     2 :       0.2500    0.0000    0.0000
  band No.  band energies     occupation 
      1     -14.9437      2.00000
      2     -11.9524      2.00000
      3      -6.3191      2.00000
      4      -2.1664      2.00000
      5      -1.7080      2.00000
      6      -0.0231      2.00000
      7       0.4224      2.00000
      8       0.6462      2.00000
      9       7.8678      0.00000
     10       9.0230      0.00000
     11      11.9326      0.00000
     12      12.8850      0.00000

 k-point     3 :       0.5000    0.0000    0.0000
  band No.  band energies     occupation 
      1     -13.8001      2.00000
      2     -13.8001      2.00000
      3      -3.0285      2.00000
      4      -3.0285      2.00000
      5      -1.1941      2.00000
      6      -1.1941      2.00000
      7      -0.6845      2.00000
      8      -0.6845      2.00000
      9      11.3397      0.00000
     10      11.3679      0.00000
     11      11.9707      0.00000
     12      12.2366      0.00000

 k-point     4 :       0.0000    0.1429    0.0000
  band No.  band energies     occupation 
      1     -14.9639      2.00000
      2      -9.5787      2.00000
      3      -8.6032      2.00000
      4      -3.4962      2.00000
      5      -2.0586      2.00000
      6       0.0646      2.00000
      7       0.5873      2.00000
      8       2.1950      2.00000
      9       5.7305      0.00000
     10       8.7413      0.00000
     11      13.0784      0.00000
     12      13.9166      0.00000

 k-point     5 :       0.2500    0.1429    0.0000
  band No.  band energies     occupation 
      1     -14.5793      2.00000
      2     -11.6098      2.00000
      3      -6.1206      2.00000
      4      -3.0910      2.00000
      5      -1.7488      2.00000
      6      -1.0773      2.00000
      7       0.0117      2.00000
      8       0.8306      2.00000
      9       7.7396      0.00000
     10       9.4719      0.00000
     11      13.0958      0.00000
     12      13.6268      0.00000

 k-point     6 :       0.5000    0.1429    0.0000
  band No.  band energies     occupation 
      1     -13.4422      2.00000
      2     -13.4422      2.00000
      3      -3.2099      2.00000
      4      -3.2099      2.00000
      5      -1.8322      2.00000
      6      -1.8322      2.00000
      7      -0.7835      2.00000
      8      -0.7835      2.00000
      9      10.9355      0.00000
     10      10.9357      0.00000
     11      11.5637      0.00000
     12      11.5899      0.00000

 k-point     7 :       0.0000    0.2857    0.0000
  band No.  band energies     occupation 
      1     -13.8749      2.00000
      2      -8.6515      2.00000
      3      -8.0315      2.00000
      4      -5.9719      2.00000
      5      -2.4939      2.00000
      6      -1.3081      2.00000
      7      -0.8293      2.00000
      8       3.5186      2.00000
      9       5.1077      0.00000
     10      10.1041      0.00000
     11      11.7424      0.00000
     12      14.0920      0.00000

 k-point     8 :       0.2500    0.2857    0.0000
  band No.  band energies     occupation 
      1     -13.4960      2.00000
      2     -10.6027      2.00000
      3      -6.5959      2.00000
      4      -4.7033      2.00000
      5      -3.7704      2.00000
      6      -0.9519      2.00000
      7      -0.5342      2.00000
      8       1.9554      2.00000
      9       6.9204      0.00000
     10      10.6969      0.00000
     11      11.0308      0.00000
     12      12.5917      0.00000

 k-point     9 :       0.5000    0.2857    0.0000
  band No.  band energies     occupation 
      1     -12.3801      2.00000
      2     -12.3801      2.00000
      3      -5.3629      2.00000
      4      -5.3629      2.00000
      5      -2.2578      2.00000
      6      -2.2578      2.00000
      7       0.3872      2.00000
      8       0.3872      2.00000
      9       9.1104      0.00000
     10       9.1104      0.00000
     11      13.3439      0.00000
     12      13.3716      0.00000

 k-point    10 :       0.0000    0.4286    0.0000
  band No.  band energies     occupation 
      1     -12.1004      2.00000
      2      -9.7671      2.00000
      3      -7.1204      2.00000
      4      -5.5370      2.00000
      5      -5.0263      2.00000
      6      -3.5545      2.00000
      7       1.0840      2.00000
      8       3.3334      2.00000
      9       5.6667      0.00000
     10       8.5110      0.00000
     11      12.3463      0.00000
     12      15.8677      0.00000

 k-point    11 :       0.2500    0.4286    0.0000
  band No.  band energies     occupation 
      1     -11.7349      2.00000
      2      -9.6190      2.00000
      3      -8.5154      2.00000
      4      -6.4943      2.00000
      5      -3.7536      2.00000
      6      -2.3221      2.00000
      7       1.2968      2.00000
      8       2.8168      2.00000
      9       6.0092      0.00000
     10       7.9053      0.00000
     11      12.9194      0.00000
     12      14.4427      0.00000

 k-point    12 :       0.5000    0.4286    0.0000
  band No.  band energies     occupation 
      1     -10.6866      2.00000
      2     -10.6866      2.00000
      3      -8.0956      2.00000
      4      -8.0956      2.00000
      5      -2.0759      2.00000
      6      -2.0759      2.00000
      7       1.9274      2.00000
      8       1.9274      2.00000
      9       6.8289      0.00000
     10       6.8289      0.00000
     11      12.1804      0.00000
     12      12.1804      0.00000

 k-point    13 :       0.0000    0.0000    0.2000
  band No.  band energies     occupation 
      1     -15.2592      2.00000
      2      -9.9158      2.00000
      3      -8.9173      2.00000
      4      -3.0850      2.00000
      5      -2.0639      2.00000
      6       1.3520      2.00000
      7       1.3586      2.00000
      8       1.8741      2.00000
      9       6.0599      0.00000
     10       9.8461      0.00000
     11      11.8763      0.00000
     12      12.7805      0.00000

 k-point    14 :       0.2500    0.0000    0.2000
  band No.  band energies     occupation 
      1     -14.8352      2.00000
      2     -12.0285      2.00000
      3      -6.3198      2.00000
      4      -3.0307      2.00000
      5      -1.6897      2.00000
      6      -0.0296      2.00000
      7       0.6353      2.00000
      8       1.0377      2.00000
      9       7.9327      0.00000
     10      11.5394      0.00000
     11      12.0322      0.00000
     12      12.8683      0.00000

 k-point    15 :       0.5000    0.0000    0.2000
  band No.  band energies     occupation 
      1     -13.8417      2.00000
      2     -13.6874      2.00000
      3      -3.0556      2.00000
      4      -3.0471      2.00000
      5      -2.0292      2.00000
      6      -0.8234      2.00000
      7      -0.6916      2.00000
      8      -0.6666      2.00000
      9      10.2586      0.00000
     10      11.5828      0.00000
     11      11.6477      0.00000
     12      12.4246      0.00000

 k-point    16 :      -0.2500    0.0000    0.2000
  band No.  band energies     occupation 
      1     -14.9298      2.00000
      2     -11.8692      2.00000
      3      -6.3762      2.00000
      4      -2.2905      2.00000
      5      -1.7057      2.00000
      6      -0.1320      2.00000
      7      -0.0375      2.00000
      8       0.6560      2.00000
      9       8.2914      0.00000
     10       9.3269      0.00000
     11      11.9635      0.00000
     12      12.9127      0.00000

 k-point    17 :       0.0000    0.1429    0.2000
  band No.  band energies     occupation 
      1     -14.8946      2.00000
      2      -9.6049      2.00000
      3      -8.6158      2.00000
      4      -3.4762      2.00000
      5      -2.6545      2.00000
      6       0.0586      2.00000
      7       0.5826      2.00000
      8       2.3165      2.00000
      9       5.9358      0.00000
     10      10.2721      0.00000
     11      13.0633      0.00000
     12      14.0387      0.00000

 k-point    18 :       0.2500    0.1429    0.2000
  band No.  band energies     occupation 
      1     -14.4733      2.00000
      2     -11.6837      2.00000
      3      -6.1190      2.00000
      4      -3.0620      2.00000
      5      -2.5979      2.00000
      6      -1.0975      2.00000
      7       0.0072      2.00000
      8       1.4315      2.00000
      9       7.7021      0.00000
     10      12.3215      0.00000
     11      13.2297      0.00000
     12      13.8404      0.00000

 k-point    19 :       0.5000    0.1429    0.2000
  band No.  band energies     occupation 
      1     -13.4827      2.00000
      2     -13.3323      2.00000
      3      -3.2335      2.00000
      4      -3.2110      2.00000
      5      -1.8459      2.00000
      6      -1.8176      2.00000
      7      -1.6028      2.00000
      8      -0.4231      2.00000
      9      10.6446      0.00000
     10      10.8991      0.00000
     11      11.1579      0.00000
     12      14.1676      0.00000

 k-point    20 :      -0.2500    0.1429    0.2000
  band No.  band energies     occupation 
      1     -14.5657      2.00000
      2     -11.5289      2.00000
      3      -6.1733      2.00000
      4      -3.0890      2.00000
      5      -1.8714      2.00000
      6      -1.0609      2.00000
      7      -0.0000      2.00000
      8       0.2839      2.00000
      9       8.1046      0.00000
     10       9.7698      0.00000
     11      13.0414      0.00000
     12      13.5434      0.00000

 k-point    21 :       0.0000    0.2857    0.2000
  band No.  band energies     occupation 
      1     -13.8103      2.00000
      2      -8.6757      2.00000
      3      -8.0270      2.00000
      4      -5.9537      2.00000
      5      -2.5040      2.00000
      6      -1.3908      2.00000
      7      -1.3148      2.00000
      8       3.6103      2.00000
      9       5.0966      0.00000
     10      11.5438      0.00000
     11      11.8443      0.00000
     12      14.0502      0.00000

 k-point    22 :       0.2500    0.2857    0.2000
  band No.  band energies     occupation 
      1     -13.3976      2.00000
      2     -10.6696      2.00000
      3      -6.5529      2.00000
      4      -4.6962      2.00000
      5      -3.8051      2.00000
      6      -1.3302      2.00000
      7      -0.9541      2.00000
      8       2.4718      2.00000
      9       6.6419      0.00000
     10      11.1717      0.00000
     11      12.4368      0.00000
     12      13.3323      0.00000

 k-point    23 :       0.5000    0.2857    0.2000
  band No.  band energies     occupation 
      1     -12.4173      2.00000
      2     -12.2785      2.00000
      3      -5.3844      2.00000
      4      -5.3123      2.00000
      5      -2.2759      2.00000
      6      -2.2709      2.00000
      7      -0.3716      2.00000
      8       0.7022      2.00000
      9       8.7804      0.00000
     10       9.3245      0.00000
     11      13.1212      0.00000
     12      13.3381      0.00000

 k-point    24 :      -0.2500    0.2857    0.2000
  band No.  band energies     occupation 
      1     -13.4832      2.00000
      2     -10.5286      2.00000
      3      -6.6038      2.00000
      4      -4.7360      2.00000
      5      -3.7349      2.00000
      6      -0.9689      2.00000
      7      -0.6533      2.00000
      8       1.4427      2.00000
      9       7.0974      0.00000
     10      10.6280      0.00000
     11      11.1260      0.00000
     12      12.5108      0.00000

 k-point    25 :       0.0000    0.4286    0.2000
  band No.  band energies     occupation 
      1     -12.0434      2.00000
      2      -9.7219      2.00000
      3      -7.1391      2.00000
      4      -5.5476      2.00000
      5      -5.0409      2.00000
      6      -3.5641      2.00000
      7       0.5958      2.00000
      8       2.9859      2.00000
      9       5.8157      0.00000
     10       8.6335      0.00000
     11      13.5072      0.00000
     12      15.7519      0.00000

 k-point    26 :       0.2500    0.4286    0.2000
  band No.  band energies     occupation 
      1     -11.6490      2.00000
      2      -9.5894      2.00000
      3      -8.5329      2.00000
      4      -6.5411      2.00000
      5      -3.7550      2.00000
      6      -2.3239      2.00000
      7       0.6358      2.00000
      8       2.6789      2.00000
      9       6.0615      0.00000
     10       8.2473      0.00000
     11      12.9430      0.00000
     12      14.4238      0.00000

 k-point    27 :       0.5000    0.4286    0.2000
  band No.  band energies     occupation 
      1     -10.7151      2.00000
      2     -10.6011      2.00000
      3      -8.1200      2.00000
      4      -8.0282      2.00000
      5      -2.0893      2.00000
      6      -2.0880      2.00000
      7       1.3784      2.00000
      8       2.0171      2.00000
      9       6.4664      0.00000
     10       6.9389      0.00000
     11      12.0803      0.00000
     12      12.0806      0.00000

 k-point    28 :      -0.2500    0.4286    0.2000
  band No.  band energies     occupation 
      1     -11.7230      2.00000
      2      -9.5900      2.00000
      3      -8.4735      2.00000
      4      -6.4451      2.00000
      5      -3.7881      2.00000
      6      -2.3463      2.00000
      7       1.1694      2.00000
      8       2.5055      2.00000
      9       5.8678      0.00000
     10       7.5797      0.00000
     11      12.7678      0.00000
     12      14.1973      0.00000

 k-point    29 :       0.0000    0.0000    0.4000
  band No.  band energies     occupation 
      1     -15.1393      2.00000
      2      -9.9529      2.00000
      3      -8.9495      2.00000
      4      -3.9143      2.00000
      5      -2.0441      2.00000
      6       1.3451      2.00000
      7       1.3529      2.00000
      8       2.1796      2.00000
      9       6.2920      0.00000
     10      11.9871      0.00000
     11      12.7600      0.00000
     12      12.7629      0.00000

 k-point    30 :       0.2500    0.0000    0.4000
  band No.  band energies     occupation 
      1     -14.7501      2.00000
      2     -11.9955      2.00000
      3      -6.3773      2.00000
      4      -3.5844      2.00000
      5      -1.6760      2.00000
      6      -0.0480      2.00000
      7       0.6383      2.00000
      8       0.7824      2.00000
      9       8.3245      0.00000
     10      12.1644      0.00000
     11      12.8152      0.00000
     12      14.2770      0.00000

 k-point    31 :       0.5000    0.0000    0.4000
  band No.  band energies     occupation 
      1     -13.7577      2.00000
      2     -13.6600      2.00000
      3      -3.0906      2.00000
      4      -3.0854      2.00000
      5      -2.2052      2.00000
      6      -1.5294      2.00000
      7      -0.6783      2.00000
      8      -0.6628      2.00000
      9      11.7741      0.00000
     10      11.9111      0.00000
     11      12.4951      0.00000
[...]

 k-point    23 :       0.5000    0.2857    0.2000
  band No.  band energies     occupation 
      1     -12.0007      2.00000
      2     -11.7919      2.00000
      3      -4.9862      2.00000
      4      -4.8724      2.00000
      5      -1.8600      2.00000
      6      -1.8469      2.00000
      7      -0.0531      2.00000
      8       1.3466      2.00000
      9       9.0228      0.00000
     10       9.7765      0.00000
     11      12.6958      0.00000
     12      13.5980      0.00000

 k-point    24 :      -0.2500    0.2857    0.2000
  band No.  band energies     occupation 
      1     -13.0486      2.00000
      2     -10.0491      2.00000
      3      -6.1951      2.00000
      4      -4.3102      2.00000
      5      -3.3104      2.00000
      6      -0.5550      2.00000
      7      -0.0447      2.00000
      8       1.6970      2.00000
      9       7.5677      0.00000
     10      10.8613      0.00000
     11      11.9294      0.00000
     12      12.8311      0.00000

 k-point    25 :       0.0000    0.4286    0.2000
  band No.  band energies     occupation 
      1     -11.5958      2.00000
      2      -9.2846      2.00000
      3      -6.7505      2.00000
      4      -5.0654      2.00000
      5      -4.6615      2.00000
      6      -3.0955      2.00000
      7       1.0912      2.00000
      8       3.4396      2.00000
      9       6.1363      0.00000
     10       8.9186      0.00000
     11      14.3612      0.00000
     12      15.3864      0.00000

 k-point    26 :       0.2500    0.4286    0.2000
  band No.  band energies     occupation 
      1     -11.1844      2.00000
      2      -9.1602      2.00000
      3      -8.1123      2.00000
      4      -6.1496      2.00000
      5      -3.3043      2.00000
      6      -1.8845      2.00000
      7       1.0442      2.00000
      8       3.1441      2.00000
      9       6.4692      0.00000
     10       8.6959      0.00000
     11      13.2378      0.00000
     12      14.7095      0.00000

 k-point    27 :       0.5000    0.4286    0.2000
  band No.  band energies     occupation 
      1     -10.3036      2.00000
      2     -10.1312      2.00000
      3      -7.7104      2.00000
      4      -7.5696      2.00000
      5      -1.6664      2.00000
      6      -1.6623      2.00000
      7       1.7268      2.00000
      8       2.5575      2.00000
      9       6.8021      0.00000
     10       7.4322      0.00000
     11      12.3424      0.00000
     12      12.3478      0.00000

 k-point    28 :      -0.2500    0.4286    0.2000
  band No.  band energies     occupation 
      1     -11.2948      2.00000
      2      -9.1580      2.00000
      3      -8.0211      2.00000
      4      -5.9987      2.00000
      5      -3.3629      2.00000
      6      -1.9242      2.00000
      7       1.7295      2.00000
      8       2.8799      2.00000
      9       6.2620      0.00000
     10       7.8171      0.00000
     11      13.0088      0.00000
     12      14.1667      0.00000

 k-point    29 :       0.0000    0.0000    0.4000
  band No.  band energies     occupation 
      1     -14.6139      2.00000
      2      -9.5682      2.00000
      3      -8.4660      2.00000
      4      -3.6289      2.00000
      5      -1.6146      2.00000
      6       1.6956      2.00000
      7       1.7595      2.00000
      8       2.5717      2.00000
      9       6.7349      0.00000
     10      12.3320      0.00000
     11      12.9840      0.00000
     12      13.1288      0.00000

 k-point    30 :       0.2500    0.0000    0.4000
  band No.  band energies     occupation 
      1     -14.2181      2.00000
      2     -11.5653      2.00000
      3      -5.9471      2.00000
      4      -3.3373      2.00000
      5      -1.2510      2.00000
      6       0.3554      2.00000
      7       0.9986      2.00000
      8       1.2725      2.00000
      9       8.6615      0.00000
     10      12.5244      0.00000
     11      13.0616      0.00000
     12      14.2764      0.00000

 k-point    31 :       0.5000    0.0000    0.4000
  band No.  band energies     occupation 
      1     -13.2903      2.00000
      2     -13.1424      2.00000
      3      -2.6954      2.00000
      4      -2.6812      2.00000
      5      -1.9650      2.00000
      6      -1.1031      2.00000
      7      -0.2846      2.00000
      8      -0.2587      2.00000
      9      12.1201      0.00000
     10      12.3032      0.00000
     11      12.8195      0.00000
     12      12.8244      0.00000

 k-point    32 :      -0.2500    0.0000    0.4000
  band No.  band energies     occupation 
      1     -14.3103      2.00000
      2     -11.4139      2.00000
      3      -6.0063      2.00000
      4      -2.8448      2.00000
      5      -1.2675      2.00000
      6       0.3290      2.00000
      7       0.3502      2.00000
      8       1.0202      2.00000
      9       9.1043      0.00000
     10      12.4227      0.00000
     11      13.0676      0.00000
     12      13.6478      0.00000

 k-point    33 :       0.0000    0.1429    0.4000
  band No.  band energies     occupation 
      1     -14.2551      2.00000
      2      -9.2568      2.00000
      3      -8.1643      2.00000
      4      -3.1880      2.00000
      5      -3.0019      2.00000
      6       0.3981      2.00000
      7       0.9988      2.00000
      8       3.0063      2.00000
      9       6.4817      0.00000
     10      13.3471      0.00000
     11      14.2054      0.00000
     12      14.9770      0.00000

 k-point    34 :       0.2500    0.1429    0.4000
  band No.  band energies     occupation 
      1     -13.8616      2.00000
      2     -11.2228      2.00000
      3      -5.7405      2.00000
      4      -2.8979      2.00000
      5      -2.6040      2.00000
      6      -0.7059      2.00000
      7       0.3816      2.00000
      8       1.6613      2.00000
      9       8.3059      0.00000
     10      13.2176      0.00000
     11      14.1237      0.00000
     12      14.2969      0.00000

 k-point    35 :       0.5000    0.1429    0.4000
  band No.  band energies     occupation 
      1     -12.9354      2.00000
      2     -12.7910      2.00000
      3      -2.8467      2.00000
      4      -2.8208      2.00000
      5      -1.5381      2.00000
      6      -1.4427      2.00000
      7      -1.4128      2.00000
      8      -0.6924      2.00000
      9      11.3601      0.00000
     10      11.6316      0.00000
     11      13.5758      0.00000
     12      14.4338      0.00000

 k-point    36 :      -0.2500    0.1429    0.4000
  band No.  band energies     occupation 
      1     -13.9514      2.00000
      2     -11.0755      2.00000
      3      -5.7977      2.00000
      4      -2.6310      2.00000
      5      -2.4130      2.00000
      6      -0.6679      2.00000
      7       0.3750      2.00000
      8       0.7359      2.00000
      9       8.7379      0.00000
     10      13.1550      0.00000
     11      13.7992      0.00000
     12      14.1175      0.00000

 k-point    37 :       0.0000    0.2857    0.4000
  band No.  band energies     occupation 
      1     -13.1878      2.00000
      2      -8.3266      2.00000
      3      -7.5583      2.00000
      4      -5.4538      2.00000
      5      -2.1602      2.00000
      6      -1.8870      2.00000
      7      -0.8838      2.00000
      8       4.2630      2.00000
      9       5.2595      0.00000
     10      12.3083      0.00000
     11      14.2623      0.00000
     12      15.2617      0.00000

 k-point    38 :       0.2500    0.2857    0.4000
  band No.  band energies     occupation 
      1     -12.8011      2.00000
      2     -10.2147      2.00000
      3      -6.0830      2.00000
      4      -4.2839      2.00000
      5      -3.3990      2.00000
      6      -1.6055      2.00000
      7      -0.5614      2.00000
      8       2.6688      2.00000
      9       6.8983      0.00000
     10      11.4627      0.00000
     11      12.6539      0.00000
     12      15.0168      0.00000

 k-point    39 :       0.5000    0.2857    0.4000
  band No.  band energies     occupation 
      1     -11.8818      2.00000
      2     -11.7481      2.00000
      3      -4.9267      2.00000
      4      -4.8552      2.00000
      5      -1.8987      2.00000
      6      -1.8906      2.00000
      7      -0.3036      2.00000
      8       0.4735      2.00000
      9       8.9645      0.00000
     10       9.4255      0.00000
     11      13.3735      0.00000
     12      13.4078      0.00000

 k-point    40 :      -0.2500    0.2857    0.4000
  band No.  band energies     occupation 
      1     -12.8845      2.00000
      2     -10.0797      2.00000
      3      -6.1351      2.00000
      4      -4.3250      2.00000
      5      -3.3292      2.00000
      6      -1.1493      2.00000
      7      -0.5766      2.00000
      8       1.8486      2.00000
      9       7.2664      0.00000
     10      11.0073      0.00000
     11      12.5436      0.00000
     12      15.1369      0.00000

 k-point    41 :       0.0000    0.4286    0.4000
  band No.  band energies     occupation 
      1     -11.4485      2.00000
      2      -9.1669      2.00000
      3      -6.7899      2.00000
      4      -5.0949      2.00000
      5      -4.6929      2.00000
      6      -3.1220      2.00000
      7       0.1827      2.00000
      8       2.7657      2.00000
      9       6.4303      0.00000
     10       9.1907      0.00000
     11      15.6420      0.00000
     12      15.8548      0.00000

 k-point    42 :       0.2500    0.4286    0.4000
  band No.  band energies     occupation 
      1     -11.0775      2.00000
      2      -9.0810      2.00000
      3      -8.0637      2.00000
      4      -6.1165      2.00000
      5      -3.3606      2.00000
      6      -1.9259      2.00000
      7       0.4206      2.00000
      8       2.6367      2.00000
      9       6.2546      0.00000
     10       8.4918      0.00000
     11      13.0180      0.00000
     12      14.3719      0.00000

 k-point    43 :       0.5000    0.4286    0.4000
  band No.  band energies     occupation 
      1     -10.1982      2.00000
      2     -10.0881      2.00000
      3      -7.6301      2.00000
      4      -7.5407      2.00000
      5      -1.7004      2.00000
      6      -1.6978      2.00000
      7       1.4413      2.00000
      8       1.9197      2.00000
      9       6.4417      0.00000
     10       6.8238      0.00000
     11      12.1178      0.00000
     12      12.1184      0.00000

 k-point    44 :      -0.2500    0.4286    0.4000
  band No.  band energies     occupation 
      1     -11.1495      2.00000
      2      -9.0740      2.00000
      3      -8.0153      2.00000
      4      -6.0232      2.00000
      5      -3.3960      2.00000
      6      -1.9501      2.00000
      7       0.7946      2.00000
      8       2.5640      2.00000
      9       5.9705      0.00000
     10       7.9046      0.00000
     11      12.8947      0.00000
     12      14.2361      0.00000


--------------------------------------------------------------------------------------------------------


 soft charge-density along one line, spin component           1
         0         1         2         3         4         5         6         7         8         9
 total charge-density along one line
 
 pseudopotential strength for first ion, spin component:           1
  9.760  12.969   0.000  -0.000  -0.000  -0.000   0.000   0.000
 12.969  17.232   0.000  -0.000  -0.000  -0.000   0.000   0.000
  0.000   0.000  -3.949  -0.000  -0.000   7.726   0.000   0.000
 -0.000  -0.000  -0.000  -3.928  -0.000   0.000   7.693   0.000
 -0.000  -0.000  -0.000  -0.000  -3.949   0.000   0.000   7.726
 -0.000  -0.000   7.726   0.000   0.000 -17.228  -0.000  -0.000
  0.000   0.000   0.000   7.693   0.000  -0.000 -17.176  -0.000
  0.000   0.000   0.000   0.000   7.726  -0.000  -0.000 -17.227
 total augmentation occupancy for first ion, spin component:           1
  8.005  -3.536   0.000   0.002   0.012   0.000   0.000   0.002
 -3.536   1.621  -0.000  -0.001  -0.006  -0.000  -0.000  -0.001
  0.000  -0.000   1.817   0.000   0.000   0.167   0.000  -0.000
  0.002  -0.001   0.000   1.193   0.004  -0.000   0.071   0.001
  0.012  -0.006   0.000   0.004   1.808  -0.000   0.001   0.166
  0.000  -0.000   0.167  -0.000  -0.000   0.017  -0.000   0.000
  0.000  -0.000   0.000   0.071   0.001  -0.000   0.005   0.000
  0.002  -0.001  -0.000   0.001   0.166   0.000   0.000   0.017


------------------------ aborting loop because EDIFF is reached ----------------------------------------





 total charge

# of ion       s       p       d       tot
------------------------------------------
    1        0.862   1.786   0.000   2.649
    2        0.862   1.786   0.000   2.649
    3        0.862   1.786   0.000   2.649
    4        0.862   1.786   0.000   2.649
--------------------------------------------------
tot          3.450   7.145   0.000  10.595
 
    CHARGE:  cpu time      0.0126: real time      0.0126
    FORLOC:  cpu time      0.0009: real time      0.0009
    FORNL :  cpu time      0.0107: real time      0.0108
    STRESS:  cpu time      0.1235: real time      0.1238
    FORCOR:  cpu time      0.0141: real time      0.0142
    FORHAR:  cpu time      0.0036: real time      0.0036
    MIXING:  cpu time      0.0007: real time      0.0007
    OFIELD:  cpu time      0.0000: real time      0.0000

 ---------------------------------------------------------------------------------------------

         DFTD3 V3.0 Rev 1        
 Edisp (eV)   -0.63183

 E6    (eV) :    -0.4526
 E8    (eV) :    -0.1793
 % E8        : 28.37
    FORVDW:  cpu time      0.0131: real time      0.0131

  FORCE on cell =-STRESS in cart. coord.  units (eV):
  Direction    XX          YY          ZZ          XY          YZ          ZX
  --------------------------------------------------------------------------------------
  Alpha Z    37.50425    37.50425    37.50425
  Ewald      70.27320    72.99161  -609.40001    -0.00000    -0.00000     3.84967
  Hartree   156.55453   157.02371  -134.22119     0.00000    -0.00000     1.64246
  E(xc)     -59.52092   -59.51144   -61.52639     0.00000    -0.00000     0.01092
  Local    -429.29200  -432.11114   507.53236    -0.00000     0.00000    -5.29803
  n-local   -14.24444   -14.29536   -12.98295     0.01423     0.11548    -0.00934
  augment    -1.55553    -1.55895    -1.43563     0.00000     0.00000    -0.00064
  Kinetic   240.43701   239.94687   275.31776     0.03610    -1.56276    -0.17380
  Fock        0.00000     0.00000     0.00000     0.00000     0.00000     0.00000
  vdW        -0.09898    -0.09631    -0.75224     0.00000     0.00000     0.00362
  -------------------------------------------------------------------------------------
  Total       0.05710    -0.10675     0.03597     0.00000     0.00000     0.02486
  in kB       2.61062    -4.88048     1.64429     0.00000     0.00000     1.13665
  external pressure =       -0.21 kB  Pullay stress =        0.00 kB


 VOLUME and BASIS-vectors are now :
 -----------------------------------------------------------------------------
  energy-cutoff  :      520.00
  volume of cell :       35.05
      direct lattice vectors                 reciprocal lattice vectors
     4.275553460  0.000000000  0.024416739     0.233339255  0.000000000  0.096062862
     0.000000000  2.464686968  0.000000000     0.000000000  0.405731037  0.000000000
    -1.365914211  0.000000000  3.317842075    -0.001717196  0.000000000  0.300693775

  length of vectors
     4.275623179  2.464686968  3.588007479     0.252339615  0.405731037  0.300698678


 FORCES acting on ions
    electron-ion (+dipol)            ewald-force                    non-local-force                 convergence-correction
 -----------------------------------------------------------------------------------------------
   0.811E+00 0.101E-13 -.188E-01   -.798E+00 -.133E-13 0.129E-01   -.104E-01 0.427E-17 -.111E-02   -.385E-03 0.585E-15 -.140E-04
   -.811E+00 -.115E-13 0.188E-01   0.798E+00 0.928E-14 -.129E-01   0.104E-01 -.139E-17 0.111E-02   0.385E-03 -.993E-14 0.140E-04
   0.811E+00 -.155E-12 -.188E-01   -.798E+00 -.743E-14 0.129E-01   -.104E-01 -.492E-18 -.111E-02   -.385E-03 0.136E-13 -.140E-04
   -.811E+00 0.112E-12 0.188E-01   0.798E+00 0.152E-13 -.129E-01   0.104E-01 0.367E-17 0.111E-02   0.385E-03 0.182E-14 0.140E-04
 -----------------------------------------------------------------------------------------------
   0.181E-13 -.447E-13 0.181E-11   0.777E-15 0.373E-14 0.317E-15   0.000E+00 0.606E-17 0.000E+00   0.316E-14 0.604E-14 -.194E-12
 
 
 POSITION                                       TOTAL-FORCE (eV/Angst)
 -----------------------------------------------------------------------------------
     -0.65198      0.00000      3.32160         0.001665      0.000000     -0.006704
      3.56162      0.00000      0.02066        -0.001665     -0.000000      0.006704
      1.48579      1.23234      3.33381         0.001665      0.000000     -0.006704
      1.42385      1.23234      0.00845        -0.001665      0.000000      0.006704
 -----------------------------------------------------------------------------------
    total drift:                                0.000000     -0.000000      0.000000


--------------------------------------------------------------------------------------------------------



  FREE ENERGIE OF THE ION-ELECTRON SYSTEM (eV)
  ---------------------------------------------------
  free  energy   TOTEN  =       -37.46721956 eV

  energy  without entropy=      -37.46721956  energy(sigma->0) =      -37.46721956
 d Force = 0.2886688E-04[-0.134E-05, 0.591E-04]  d Energy =-0.3497286E-04 0.638E-04
 d Force = 0.1255184E-02[ 0.112E-02, 0.139E-02]  d Ewald  = 0.8267928E+00-0.826E+00
 


--------------------------------------------------------------------------------------------------------


    POTLOK:  cpu time      0.0450: real time      0.0452


--------------------------------------------------------------------------------------------------------




--------------------------------------------------------------------------------------------------------


  
 reached required accuracy - stopping structural energy minimisation
 writing wavefunctions
     LOOP+:  cpu time      1.1068: real time      1.1149
    4ORBIT:  cpu time      0.0000: real time      0.0000



 total charge

# of ion       s       p       d       tot
------------------------------------------
    1        0.862   1.786   0.000   2.649
    2        0.862   1.786   0.000   2.649
    3        0.862   1.786   0.000   2.649
    4        0.862   1.786   0.000   2.649
--------------------------------------------------
tot          3.450   7.145   0.000  10.595
 

 total amount of memory used by VASP MPI-rank0    38516. kBytes
=======================================================================

   base                                    :      30000. kBytes
   nonl-proj                               :       2891. kBytes
   fftplans                                :       1186. kBytes
   grid                                    :       2239. kBytes
   one-center                              :         12. kBytes
   wavefun                                 :       2188. kBytes
 
  
  
 General timing and accounting informations for this job:
 ========================================================
  
                  Total CPU time used (sec):       29.193
                            User time (sec):       28.911
                          System time (sec):        0.282
                         Elapsed time (sec):       29.702
  
                   Maximum memory used (kb):      226100.
                   Average memory used (kb):          N/A
  
                          Minor page faults:        66920
                          Major page faults:           63
                 Voluntary context switches:         1774
