PROCAR lm decomposed
# of k-points:   44         # of bands:   12         # of ions:    4

 k-point     1 :    0.00000000 0.00000000 0.00000000     weight = 0.00714286

band     1 # energy  -14.90268429 # occ.  2.00000000
 
ion      s     py     pz     px    dxy    dyz    dz2    dxz  x2-y2    tot
    1  0.157  0.000  0.000  0.000  0.000  0.000  0.000  0.000  0.000  0.157
    2  0.157  0.000  0.000  0.000  0.000  0.000  0.000  0.000  0.000  0.157
    3  0.157  0.000  0.000  0.000  0.000  0.000  0.000  0.000  0.000  0.157
    4  0.157  0.000  0.000  0.000  0.000  0.000  0.000  0.000  0.000  0.157
tot    0.630  0.000  0.000  0.000  0.000  0.000  0.000  0.000  0.000  0.630
 
band     2 # energy   -9.47838235 # occ.  2.00000000
 
ion      s     py     pz     px    dxy    dyz    dz2    dxz  x2-y2    tot
    1  0.150  0.000  0.000  0.032  0.000  0.000  0.000  0.000  0.000  0.182
    2  0.150  0.000  0.000  0.032  0.000  0.000  0.000  0.000  0.000  0.182
    3  0.150  0.000  0.000  0.032  0.000  0.000  0.000  0.000  0.000  0.182
    4  0.150  0.000  0.000  0.032  0.000  0.000  0.000  0.000  0.000  0.182
tot    0.602  0.000  0.000  0.127  0.000  0.000  0.000  0.000  0.000  0.729
 
band     3 # energy   -8.40462475 # occ.  2.00000000
 
ion      s     py     pz     px    dxy    dyz    dz2    dxz  x2-y2    tot
    1  0.068  0.000  0.000  0.098  0.000  0.000  0.000  0.000  0.000  0.167
    2  0.068  0.000  0.000  0.098  0.000  0.000  0.000  0.000  0.000  0.167
    3  0.068  0.000  0.000  0.098  0.000  0.000  0.000  0.000  0.000  0.167
    4  0.068  0.000  0.000  0.098  0.000  0.000  0.000  0.000  0.000  0.167
tot    0.274  0.000  0.000  0.392  0.000  0.000  0.000  0.000  0.000  0.666
 
band     4 # energy   -1.73772264 # occ.  2.00000000
 
ion      s     py     pz     px    dxy    dyz    dz2    dxz  x2-y2    tot
    1  0.000  0.000  0.126  0.000  0.000  0.000  0.000  0.000  0.000  0.126
    2  0.000  0.000  0.126  0.000  0.000  0.000  0.000  0.000  0.000  0.126
    3  0.000  0.000  0.126  0.000  0.000  0.000  0.000  0.000  0.000  0.126
    4  0.000  0.000  0.126  0.000  0.000  0.000  0.000  0.000  0.000  0.126
tot    0.000  0.000  0.505  0.000  0.000  0.000  0.000  0.000  0.000  0.505
 
band     5 # energy   -1.66884384 # occ.  2.00000000
 
ion      s     py     pz     px    dxy    dyz    dz2    dxz  x2-y2    tot
    1  0.000  0.196  0.000  0.000  0.000  0.000  0.000  0.000  0.000  0.196
    2  0.000  0.196  0.000  0.000  0.000  0.000  0.000  0.000  0.000  0.196
    3  0.000  0.196  0.000  0.000  0.000  0.000  0.000  0.000  0.000  0.196
    4  0.000  0.196  0.000  0.000  0.000  0.000  0.000  0.000  0.000  0.196
tot    0.000  0.783  0.000  0.000  0.000  0.000  0.000  0.000  0.000  0.783
 
band     6 # energy    1.71010209 # occ.  2.00000000
 
ion      s     py     pz     px    dxy    dyz    dz2    dxz  x2-y2    tot
    1  0.000  0.206  0.000  0.000  0.000  0.000  0.000  0.000  0.000  0.206
    2  0.000  0.206  0.000  0.000  0.000  0.000  0.000  0.000  0.000  0.206
    3  0.000  0.206  0.000  0.000  0.000  0.000  0.000  0.000  0.000  0.206
    4  0.000  0.206  0.000  0.000  0.000  0.000  0.000  0.000  0.000  0.206
tot    0.000  0.825  0.000  0.000  0.000  0.000  0.000  0.000  0.000  0.825
 
band     7 # energy    1.78112208 # occ.  2.00000000
 
ion      s     py     pz     px    dxy    dyz    dz2    dxz  x2-y2    tot
    1  0.000  0.000  0.000  0.205  0.000  0.000  0.000  0.000  0.000  0.205
    2  0.000  0.000  0.000  0.205  0.000  0.000  0.000  0.000  0.000  0.205
    3  0.000  0.000  0.000  0.205  0.000  0.000  0.000  0.000  0.000  0.205
    4  0.000  0.000  0.000  0.205  0.000  0.000  0.000  0.000  0.000  0.205
tot    0.000  0.000  0.000  0.822  0.000  0.000  0.000  0.000  0.000  0.822
 
band     8 # energy    2.06565559 # occ.  2.00000000
 
ion      s     py     pz     px    dxy    dyz    dz2    dxz  x2-y2    tot
    1  0.000  0.000  0.122  0.000  0.000  0.000  0.000  0.000  0.000  0.123
    2  0.000  0.000  0.122  0.000  0.000  0.000  0.000  0.000  0.000  0.123
    3  0.000  0.000  0.122  0.000  0.000  0.000  0.000  0.000  0.000  0.123
    4  0.000  0.000  0.122  0.000  0.000  0.000  0.000  0.000  0.000  0.123
tot    0.000  0.000  0.490  0.001  0.000  0.000  0.000  0.000  0.000  0.492
 
band     9 # energy    6.15725784 # occ.  0.00000000
 
ion      s     py     pz     px    dxy    dyz    dz2    dxz  x2-y2    tot
    1  0.000  0.000  0.103  0.000  0.000  0.000  0.000  0.000  0.000  0.104
    2  0.000  0.000  0.103  0.000  0.000  0.000  0.000  0.000  0.000  0.104
    3  0.000  0.000  0.103  0.000  0.000  0.000  0.000  0.000  0.000  0.104
    4  0.000  0.000  0.103  0.000  0.000  0.000  0.000  0.000  0.000  0.104
tot    0.001  0.000  0.414  0.001  0.000  0.000  0.000  0.000  0.000  0.416
 
band    10 # energy    9.11399723 # occ.  0.00000000
 
ion      s     py     pz     px    dxy    dyz    dz2    dxz  x2-y2    tot
    1  0.021  0.000  0.000  0.000  0.000  0.000  0.000  0.000  0.000  0.021
    2  0.021  0.000  0.000  0.000  0.000  0.000  0.000  0.000  0.000  0.021
    3  0.021  0.000  0.000  0.000  0.000  0.000  0.000  0.000  0.000  0.021
    4  0.021  0.000  0.000  0.000  0.000  0.000  0.000  0.000  0.000  0.021
tot    0.085  0.000  0.000  0.000  0.000  0.000  0.000  0.000  0.000  0.085
 
band    11 # energy   11.95278080 # occ.  0.00000000
 
ion      s     py     pz     px    dxy    dyz    dz2    dxz  x2-y2    tot
    1  0.090  0.000  0.000  0.020  0.000  0.000  0.000  0.000  0.000  0.110
    2  0.090  0.000  0.000  0.020  0.000  0.000  0.000  0.000  0.000  0.110
    3  0.090  0.000  0.000  0.020  0.000  0.000  0.000  0.000  0.000  0.110
    4  0.090  0.000  0.000  0.020  0.000  0.000  0.000  0.000  0.000  0.110
tot    0.361  0.000  0.000  0.079  0.000  0.000  0.000  0.000  0.000  0.440
 
band    12 # energy   13.04392052 # occ.  0.00000000
 
ion      s     py     pz     px    dxy    dyz    dz2    dxz  x2-y2    tot
    1  0.000  0.000  0.000  0.132  0.000  0.000  0.000  0.000  0.000  0.132
    2  0.000  0.000  0.000  0.132  0.000  0.000  0.000  0.000  0.000  0.132
    3  0.000  0.000  0.000  0.132  0.000  0.000  0.000  0.000  0.000  0.132
    4  0.000  0.000  0.000  0.132  0.000  0.000  0.000  0.000  0.000  0.132
tot    0.000  0.000  0.000  0.528  0.000  0.000  0.000  0.000  0.000  0.529
 

 k-point     2 :    0.25000000 0.00000000 0.00000000     weight = 0.01428571

band     1 # energy  -14.51321376 # occ.  2.00000000
 
ion      s     py     pz     px    dxy    dyz    dz2    dxz  x2-y2    tot
    1  0.155  0.000  0.000  0.004  0.000  0.000  0.000  0.000  0.000  0.159
    2  0.155  0.000  0.000  0.004  0.000  0.000  0.000  0.000  0.000  0.159
    3  0.155  0.000  0.000  0.004  0.000  0.000  0.000  0.000  0.000  0.159
    4  0.155  0.000  0.000  0.004  0.000  0.000  0.000  0.000  0.000  0.159
tot    0.620  0.000  0.000  0.015  0.000  0.000  0.000  0.000  0.000  0.635
 
band     2 # energy  -11.50931060 # occ.  2.00000000
 
ion      s     py     pz     px    dxy    dyz    dz2    dxz  x2-y2    tot
    1  0.137  0.000  0.000  0.032  0.000  0.000  0.000  0.000  0.000  0.169
    2  0.137  0.000  0.000  0.032  0.000  0.000  0.000  0.000  0.000  0.169
    3  0.137  0.000  0.000  0.032  0.000  0.000  0.000  0.000  0.000  0.169
    4  0.137  0.000  0.000  0.032  0.000  0.000  0.000  0.000  0.000  0.169
tot    0.548  0.000  0.000  0.128  0.000  0.000  0.000  0.000  0.000  0.676
 
band     3 # energy   -5.86369467 # occ.  2.00000000
 
ion      s     py     pz     px    dxy    dyz    dz2    dxz  x2-y2    tot
    1  0.076  0.000  0.000  0.104  0.000  0.000  0.000  0.000  0.000  0.180
    2  0.076  0.000  0.000  0.104  0.000  0.000  0.000  0.000  0.000  0.180
    3  0.076  0.000  0.000  0.104  0.000  0.000  0.000  0.000  0.000  0.180
    4  0.076  0.000  0.000  0.104  0.000  0.000  0.000  0.000  0.000  0.180
tot    0.305  0.000  0.000  0.416  0.000  0.000  0.000  0.000  0.000  0.722
 
band     4 # energy   -1.46856649 # occ.  2.00000000
 
ion      s     py     pz     px    dxy    dyz    dz2    dxz  x2-y2    tot
    1  0.000  0.000  0.124  0.000  0.000  0.000  0.000  0.000  0.000  0.124
    2  0.000  0.000  0.124  0.000  0.000  0.000  0.000  0.000  0.000  0.124
    3  0.000  0.000  0.124  0.000  0.000  0.000  0.000  0.000  0.000  0.124
    4  0.000  0.000  0.124  0.000  0.000  0.000  0.000  0.000  0.000  0.124
tot    0.001  0.000  0.495  0.000  0.000  0.000  0.000  0.000  0.000  0.496
 
band     5 # energy   -1.30546092 # occ.  2.00000000
 
ion      s     py     pz     px    dxy    dyz    dz2    dxz  x2-y2    tot
    1  0.000  0.196  0.000  0.000  0.000  0.000  0.000  0.000  0.000  0.196
    2  0.000  0.196  0.000  0.000  0.000  0.000  0.000  0.000  0.000  0.196
    3  0.000  0.196  0.000  0.000  0.000  0.000  0.000  0.000  0.000  0.196
    4  0.000  0.196  0.000  0.000  0.000  0.000  0.000  0.000  0.000  0.196
tot    0.000  0.785  0.000  0.000  0.000  0.000  0.000  0.000  0.000  0.785
 
band     6 # energy    0.40125489 # occ.  2.00000000
 
ion      s     py     pz     px    dxy    dyz    dz2    dxz  x2-y2    tot
    1  0.018  0.000  0.000  0.181  0.000  0.000  0.000  0.000  0.000  0.200
    2  0.018  0.000  0.000  0.181  0.000  0.000  0.000  0.000  0.000  0.200
    3  0.018  0.000  0.000  0.181  0.000  0.000  0.000  0.000  0.000  0.200
    4  0.018  0.000  0.000  0.181  0.000  0.000  0.000  0.000  0.000  0.200
tot    0.073  0.000  0.000  0.725  0.000  0.000  0.000  0.000  0.000  0.798
 
band     7 # energy    0.86154631 # occ.  2.00000000
 
ion      s     py     pz     px    dxy    dyz    dz2    dxz  x2-y2    tot
    1  0.000  0.000  0.118  0.000  0.000  0.000  0.000  0.000  0.000  0.118
    2  0.000  0.000  0.118  0.000  0.000  0.000  0.000  0.000  0.000  0.118
    3  0.000  0.000  0.118  0.000  0.000  0.000  0.000  0.000  0.000  0.118
    4  0.000  0.000  0.118  0.000  0.000  0.000  0.000  0.000  0.000  0.118
tot    0.002  0.000  0.471  0.001  0.000  0.000  0.000  0.000  0.000  0.474
 
band     8 # energy    1.01035593 # occ.  2.00000000
 
ion      s     py     pz     px    dxy    dyz    dz2    dxz  x2-y2    tot
    1  0.000  0.202  0.000  0.000  0.000  0.000  0.000  0.000  0.000  0.202
    2  0.000  0.202  0.000  0.000  0.000  0.000  0.000  0.000  0.000  0.202
    3  0.000  0.202  0.000  0.000  0.000  0.000  0.000  0.000  0.000  0.202
    4  0.000  0.202  0.000  0.000  0.000  0.000  0.000  0.000  0.000  0.202
tot    0.000  0.810  0.000  0.000  0.000  0.000  0.000  0.000  0.000  0.810
 
band     9 # energy    8.15061015 # occ.  0.00000000
 
ion      s     py     pz     px    dxy    dyz    dz2    dxz  x2-y2    tot
    1  0.000  0.000  0.117  0.000  0.000  0.000  0.000  0.000  0.000  0.117
    2  0.000  0.000  0.117  0.000  0.000  0.000  0.000  0.000  0.000  0.117
    3  0.000  0.000  0.117  0.000  0.000  0.000  0.000  0.000  0.000  0.117
    4  0.000  0.000  0.117  0.000  0.000  0.000  0.000  0.000  0.000  0.117
tot    0.001  0.000  0.467  0.001  0.000  0.000  0.000  0.000  0.000  0.469
 
band    10 # energy    9.86751998 # occ.  0.00000000
 
ion      s     py     pz     px    dxy    dyz    dz2    dxz  x2-y2    tot
    1  0.018  0.000  0.004  0.003  0.000  0.000  0.000  0.000  0.000  0.025
    2  0.018  0.000  0.004  0.003  0.000  0.000  0.000  0.000  0.000  0.025
    3  0.018  0.000  0.004  0.003  0.000  0.000  0.000  0.000  0.000  0.025
    4  0.018  0.000  0.004  0.003  0.000  0.000  0.000  0.000  0.000  0.025
tot    0.072  0.000  0.016  0.011  0.000  0.000  0.000  0.000  0.000  0.100
 
band    11 # energy   12.16752974 # occ.  0.00000000
 
ion      s     py     pz     px    dxy    dyz    dz2    dxz  x2-y2    tot
    1  0.081  0.000  0.000  0.030  0.000  0.000  0.000  0.000  0.000  0.111
    2  0.081  0.000  0.000  0.030  0.000  0.000  0.000  0.000  0.000  0.111
    3  0.081  0.000  0.000  0.030  0.000  0.000  0.000  0.000  0.000  0.111
    4  0.081  0.000  0.000  0.030  0.000  0.000  0.000  0.000  0.000  0.111
tot    0.324  0.000  0.001  0.120  0.000  0.000  0.000  0.000  0.000  0.444
 
band    12 # energy   13.15376566 # occ.  0.00000000
 
ion      s     py     pz     px    dxy    dyz    dz2    dxz  x2-y2    tot
    1  0.018  0.000  0.001  0.107  0.000  0.000  0.000  0.000  0.000  0.126
    2  0.018  0.000  0.001  0.107  0.000  0.000  0.000  0.000  0.000  0.126
    3  0.018  0.000  0.001  0.107  0.000  0.000  0.000  0.000  0.000  0.126
    4  0.018  0.000  0.001  0.107  0.000  0.000  0.000  0.000  0.000  0.126
tot    0.073  0.000  0.002  0.428  0.000  0.000  0.000  0.000  0.000  0.503
 

 k-point     3 :    0.50000000 0.00000000 0.00000000     weight = 0.00714286

band     1 # energy  -13.36224713 # occ.  2.00000000
 
ion      s     py     pz     px    dxy    dyz    dz2    dxz  x2-y2    tot
    1  0.196  0.000  0.000  0.011  0.000  0.000  0.000  0.000  0.000  0.207
    2  0.077  0.000  0.000  0.022  0.000  0.000  0.000  0.000  0.000  0.099
    3  0.099  0.000  0.000  0.019  0.000  0.000  0.000  0.000  0.000  0.119
    4  0.219  0.000  0.000  0.008  0.000  0.000  0.000  0.000  0.000  0.227
tot    0.591  0.000  0.000  0.060  0.000  0.000  0.000  0.000  0.000  0.651
 
band     2 # energy  -13.36224713 # occ.  2.00000000
 
ion      s     py     pz     px    dxy    dyz    dz2    dxz  x2-y2    tot
    1  0.099  0.000  0.000  0.019  0.000  0.000  0.000  0.000  0.000  0.119
    2  0.219  0.000  0.000  0.008  0.000  0.000  0.000  0.000  0.000  0.227
    3  0.196  0.000  0.000  0.011  0.000  0.000  0.000  0.000  0.000  0.207
    4  0.077  0.000  0.000  0.022  0.000  0.000  0.000  0.000  0.000  0.099
tot    0.591  0.000  0.000  0.060  0.000  0.000  0.000  0.000  0.000  0.651
 
band     3 # energy   -2.59213481 # occ.  2.00000000
 
ion      s     py     pz     px    dxy    dyz    dz2    dxz  x2-y2    tot
    1  0.068  0.000  0.000  0.110  0.000  0.000  0.000  0.000  0.000  0.178
    2  0.037  0.000  0.000  0.152  0.000  0.000  0.000  0.000  0.000  0.189
    3  0.031  0.000  0.000  0.170  0.000  0.000  0.000  0.000  0.000  0.201
    4  0.062  0.000  0.000  0.128  0.000  0.000  0.000  0.000  0.000  0.191
tot    0.198  0.000  0.000  0.561  0.000  0.000  0.000  0.000  0.000  0.759
 
band     4 # energy   -2.59213481 # occ.  2.00000000
 
ion      s     py     pz     px    dxy    dyz    dz2    dxz  x2-y2    tot
    1  0.031  0.000  0.000  0.170  0.000  0.000  0.000  0.000  0.000  0.201
    2  0.062  0.000  0.000  0.128  0.000  0.000  0.000  0.000  0.000  0.191
    3  0.068  0.000  0.000  0.110  0.000  0.000  0.000  0.000  0.000  0.178
    4  0.037  0.000  0.000  0.152  0.000  0.000  0.000  0.000  0.000  0.189
tot    0.198  0.000  0.000  0.561  0.000  0.000  0.000  0.000  0.000  0.759
 
band     5 # energy   -0.60776456 # occ.  2.00000000
 
ion      s     py     pz     px    dxy    dyz    dz2    dxz  x2-y2    tot
    1  0.001  0.000  0.133  0.000  0.000  0.000  0.000  0.000  0.000  0.134
    2  0.000  0.000  0.176  0.000  0.000  0.000  0.000  0.000  0.000  0.177
    3  0.001  0.000  0.105  0.000  0.000  0.000  0.000  0.000  0.000  0.106
    4  0.001  0.000  0.062  0.000  0.000  0.000  0.000  0.000  0.000  0.063
tot    0.002  0.000  0.476  0.001  0.000  0.000  0.000  0.000  0.000  0.479
 
band     6 # energy   -0.60776456 # occ.  2.00000000
 
ion      s     py     pz     px    dxy    dyz    dz2    dxz  x2-y2    tot
    1  0.001  0.000  0.105  0.000  0.000  0.000  0.000  0.000  0.000  0.106
    2  0.001  0.000  0.062  0.000  0.000  0.000  0.000  0.000  0.000  0.063
    3  0.001  0.000  0.133  0.000  0.000  0.000  0.000  0.000  0.000  0.134
    4  0.000  0.000  0.176  0.000  0.000  0.000  0.000  0.000  0.000  0.177
tot    0.002  0.000  0.476  0.001  0.000  0.000  0.000  0.000  0.000  0.479
 
band     7 # energy   -0.29654905 # occ.  2.00000000
 
ion      s     py     pz     px    dxy    dyz    dz2    dxz  x2-y2    tot
    1  0.000  0.154  0.000  0.000  0.000  0.000  0.000  0.000  0.000  0.154
    2  0.000  0.284  0.000  0.000  0.000  0.000  0.000  0.000  0.000  0.284
    3  0.000  0.242  0.000  0.000  0.000  0.000  0.000  0.000  0.000  0.242
    4  0.000  0.112  0.000  0.000  0.000  0.000  0.000  0.000  0.000  0.112
tot    0.000  0.792  0.000  0.000  0.000  0.000  0.000  0.000  0.000  0.792
 
band     8 # energy   -0.29654905 # occ.  2.00000000
 
ion      s     py     pz     px    dxy    dyz    dz2    dxz  x2-y2    tot
    1  0.000  0.242  0.000  0.000  0.000  0.000  0.000  0.000  0.000  0.242
    2  0.000  0.112  0.000  0.000  0.000  0.000  0.000  0.000  0.000  0.112
    3  0.000  0.154  0.000  0.000  0.000  0.000  0.000  0.000  0.000  0.154
    4  0.000  0.284  0.000  0.000  0.000  0.000  0.000  0.000  0.000  0.284
tot    0.000  0.792  0.000  0.000  0.000  0.000  0.000  0.000  0.000  0.792
 
band     9 # energy   11.57443158 # occ.  0.00000000
 
ion      s     py     pz     px    dxy    dyz    dz2    dxz  x2-y2    tot
    1  0.002  0.000  0.082  0.003  0.000  0.000  0.000  0.000  0.000  0.087
    2  0.003  0.000  0.091  0.002  0.000  0.000  0.000  0.000  0.000  0.097
    3  0.003  0.000  0.140  0.001  0.000  0.000  0.000  0.000  0.000  0.145
    4  0.003  0.000  0.130  0.002  0.000  0.000  0.000  0.000  0.000  0.135
tot    0.011  0.000  0.444  0.008  0.000  0.000  0.000  0.000  0.000  0.462
 
band    10 # energy   11.57443158 # occ.  0.00000000
 
ion      s     py     pz     px    dxy    dyz    dz2    dxz  x2-y2    tot
    1  0.003  0.000  0.140  0.001  0.000  0.000  0.000  0.000  0.000  0.145
    2  0.003  0.000  0.130  0.002  0.000  0.000  0.000  0.000  0.000  0.135
    3  0.002  0.000  0.082  0.003  0.000  0.000  0.000  0.000  0.000  0.087
    4  0.003  0.000  0.091  0.002  0.000  0.000  0.000  0.000  0.000  0.097
tot    0.011  0.000  0.444  0.008  0.000  0.000  0.000  0.000  0.000  0.462
 
band    11 # energy   12.03521034 # occ.  0.00000000
 
ion      s     py     pz     px    dxy    dyz    dz2    dxz  x2-y2    tot
    1  0.003  0.000  0.045  0.008  0.000  0.000  0.000  0.000  0.000  0.056
    2  0.003  0.000  0.021  0.015  0.000  0.000  0.000  0.000  0.000  0.040
    3  0.012  0.000  0.041  0.033  0.000  0.000  0.000  0.000  0.000  0.087
    4  0.012  0.000  0.064  0.026  0.000  0.000  0.000  0.000  0.000  0.103
tot    0.032  0.000  0.171  0.081  0.000  0.000  0.000  0.000  0.000  0.285
 
band    12 # energy   12.03521034 # occ.  0.00000000
 
ion      s     py     pz     px    dxy    dyz    dz2    dxz  x2-y2    tot
    1  0.012  0.000  0.041  0.033  0.000  0.000  0.000  0.000  0.000  0.087
    2  0.012  0.000  0.064  0.026  0.000  0.000  0.000  0.000  0.000  0.103
    3  0.003  0.000  0.045  0.008  0.000  0.000  0.000  0.000  0.000  0.056
    4  0.003  0.000  0.021  0.015  0.000  0.000  0.000  0.000  0.000  0.040
tot    0.032  0.000  0.171  0.081  0.000  0.000  0.000  0.000  0.000  0.285
 

 k-point     4 :    0.00000000 0.14285714 0.00000000     weight = 0.01428571

band     1 # energy  -14.53752983 # occ.  2.00000000
 
ion      s     py     pz     px    dxy    dyz    dz2    dxz  x2-y2    tot
    1  0.155  0.004  0.000  0.000  0.000  0.000  0.000  0.000  0.000  0.158
    2  0.155  0.004  0.000  0.000  0.000  0.000  0.000  0.000  0.000  0.158
    3  0.155  0.004  0.000  0.000  0.000  0.000  0.000  0.000  0.000  0.158
    4  0.155  0.004  0.000  0.000  0.000  0.000  0.000  0.000  0.000  0.158
tot    0.619  0.015  0.000  0.000  0.000  0.000  0.000  0.000  0.000  0.634
 
band     2 # energy   -9.16986244 # occ.  2.00000000
 
ion      s     py     pz     px    dxy    dyz    dz2    dxz  x2-y2    tot
    1  0.146  0.006  0.000  0.032  0.000  0.000  0.000  0.000  0.000  0.183
    2  0.146  0.006  0.000  0.032  0.000  0.000  0.000  0.000  0.000  0.183
    3  0.146  0.006  0.000  0.032  0.000  0.000  0.000  0.000  0.000  0.183
    4  0.146  0.006  0.000  0.032  0.000  0.000  0.000  0.000  0.000  0.183
tot    0.583  0.023  0.000  0.126  0.000  0.000  0.000  0.000  0.000  0.732
 
band     3 # energy   -8.10880490 # occ.  2.00000000
 
ion      s     py     pz     px    dxy    dyz    dz2    dxz  x2-y2    tot
    1  0.072  0.000  0.000  0.097  0.000  0.000  0.000  0.000  0.000  0.169
    2  0.072  0.000  0.000  0.097  0.000  0.000  0.000  0.000  0.000  0.169
    3  0.072  0.000  0.000  0.097  0.000  0.000  0.000  0.000  0.000  0.169
    4  0.072  0.000  0.000  0.097  0.000  0.000  0.000  0.000  0.000  0.169
tot    0.287  0.000  0.000  0.388  0.000  0.000  0.000  0.000  0.000  0.676
 
band     4 # energy   -3.08777546 # occ.  2.00000000
 
ion      s     py     pz     px    dxy    dyz    dz2    dxz  x2-y2    tot
    1  0.017  0.164  0.000  0.004  0.000  0.000  0.000  0.000  0.000  0.185
    2  0.017  0.164  0.000  0.004  0.000  0.000  0.000  0.000  0.000  0.185
    3  0.017  0.164  0.000  0.004  0.000  0.000  0.000  0.000  0.000  0.185
    4  0.017  0.164  0.000  0.004  0.000  0.000  0.000  0.000  0.000  0.185
tot    0.067  0.655  0.000  0.017  0.000  0.000  0.000  0.000  0.000  0.740
 
band     5 # energy   -1.32478710 # occ.  2.00000000
 
ion      s     py     pz     px    dxy    dyz    dz2    dxz  x2-y2    tot
    1  0.000  0.000  0.127  0.000  0.000  0.000  0.000  0.000  0.000  0.127
    2  0.000  0.000  0.127  0.000  0.000  0.000  0.000  0.000  0.000  0.127
    3  0.000  0.000  0.127  0.000  0.000  0.000  0.000  0.000  0.000  0.127
    4  0.000  0.000  0.127  0.000  0.000  0.000  0.000  0.000  0.000  0.127
tot    0.000  0.000  0.507  0.000  0.000  0.000  0.000  0.000  0.000  0.507
 
band     6 # energy    0.42137217 # occ.  2.00000000
 
ion      s     py     pz     px    dxy    dyz    dz2    dxz  x2-y2    tot
    1  0.018  0.174  0.000  0.010  0.000  0.000  0.000  0.000  0.000  0.201
    2  0.018  0.174  0.000  0.010  0.000  0.000  0.000  0.000  0.000  0.201
    3  0.018  0.174  0.000  0.010  0.000  0.000  0.000  0.000  0.000  0.201
    4  0.018  0.174  0.000  0.010  0.000  0.000  0.000  0.000  0.000  0.201
tot    0.071  0.695  0.000  0.039  0.000  0.000  0.000  0.000  0.000  0.805
 
band     7 # energy    1.02137283 # occ.  2.00000000
 
ion      s     py     pz     px    dxy    dyz    dz2    dxz  x2-y2    tot
    1  0.000  0.011  0.000  0.189  0.000  0.000  0.000  0.000  0.000  0.201
    2  0.000  0.011  0.000  0.189  0.000  0.000  0.000  0.000  0.000  0.201
    3  0.000  0.011  0.000  0.189  0.000  0.000  0.000  0.000  0.000  0.201
    4  0.000  0.011  0.000  0.189  0.000  0.000  0.000  0.000  0.000  0.201
tot    0.002  0.046  0.000  0.755  0.000  0.000  0.000  0.000  0.000  0.803
 
band     8 # energy    2.50827229 # occ.  2.00000000
 
ion      s     py     pz     px    dxy    dyz    dz2    dxz  x2-y2    tot
    1  0.000  0.000  0.123  0.000  0.000  0.000  0.000  0.000  0.000  0.123
    2  0.000  0.000  0.123  0.000  0.000  0.000  0.000  0.000  0.000  0.123
    3  0.000  0.000  0.123  0.000  0.000  0.000  0.000  0.000  0.000  0.123
    4  0.000  0.000  0.123  0.000  0.000  0.000  0.000  0.000  0.000  0.123
tot    0.000  0.000  0.492  0.001  0.000  0.000  0.000  0.000  0.000  0.494
 
band     9 # energy    6.12382813 # occ.  0.00000000
 
ion      s     py     pz     px    dxy    dyz    dz2    dxz  x2-y2    tot
    1  0.000  0.000  0.112  0.000  0.000  0.000  0.000  0.000  0.000  0.113
    2  0.000  0.000  0.112  0.000  0.000  0.000  0.000  0.000  0.000  0.113
    3  0.000  0.000  0.112  0.000  0.000  0.000  0.000  0.000  0.000  0.113
    4  0.000  0.000  0.112  0.000  0.000  0.000  0.000  0.000  0.000  0.113
tot    0.001  0.000  0.449  0.001  0.000  0.000  0.000  0.000  0.000  0.451
 
band    10 # energy    9.55447431 # occ.  0.00000000
 
ion      s     py     pz     px    dxy    dyz    dz2    dxz  x2-y2    tot
    1  0.019  0.002  0.000  0.000  0.000  0.000  0.000  0.000  0.000  0.022
    2  0.019  0.002  0.000  0.000  0.000  0.000  0.000  0.000  0.000  0.022
    3  0.019  0.002  0.000  0.000  0.000  0.000  0.000  0.000  0.000  0.022
    4  0.019  0.002  0.000  0.000  0.000  0.000  0.000  0.000  0.000  0.022
tot    0.077  0.009  0.000  0.000  0.000  0.000  0.000  0.000  0.000  0.087
 
band    11 # energy   13.44122888 # occ.  0.00000000
 
ion      s     py     pz     px    dxy    dyz    dz2    dxz  x2-y2    tot
    1  0.010  0.099  0.001  0.016  0.000  0.000  0.000  0.000  0.000  0.126
    2  0.010  0.099  0.001  0.016  0.000  0.000  0.000  0.000  0.000  0.126
    3  0.010  0.099  0.001  0.016  0.000  0.000  0.000  0.000  0.000  0.126
    4  0.010  0.099  0.001  0.016  0.000  0.000  0.000  0.000  0.000  0.126
tot    0.038  0.395  0.004  0.065  0.000  0.000  0.000  0.000  0.000  0.502
 
band    12 # energy   13.85596687 # occ.  0.00000000
 
ion      s     py     pz     px    dxy    dyz    dz2    dxz  x2-y2    tot
    1  0.066  0.034  0.000  0.018  0.000  0.000  0.000  0.000  0.000  0.118
    2  0.066  0.034  0.000  0.019  0.000  0.000  0.000  0.000  0.000  0.119
    3  0.066  0.034  0.000  0.019  0.000  0.000  0.000  0.000  0.000  0.119
    4  0.066  0.034  0.000  0.018  0.000  0.000  0.000  0.000  0.000  0.118
tot    0.264  0.136  0.000  0.075  0.000  0.000  0.000  0.000  0.000  0.474
 

 k-point     5 :    0.25000000 0.14285714 0.00000000     weight = 0.02857143

band     1 # energy  -14.14998032 # occ.  2.00000000
 
ion      s     py     pz     px    dxy    dyz    dz2    dxz  x2-y2    tot
    1  0.152  0.004  0.000  0.004  0.000  0.000  0.000  0.000  0.000  0.160
    2  0.152  0.004  0.000  0.004  0.000  0.000  0.000  0.000  0.000  0.160
    3  0.152  0.004  0.000  0.004  0.000  0.000  0.000  0.000  0.000  0.160
    4  0.152  0.004  0.000  0.004  0.000  0.000  0.000  0.000  0.000  0.160
tot    0.609  0.015  0.000  0.015  0.000  0.000  0.000  0.000  0.000  0.639
 
band     2 # energy  -11.16871677 # occ.  2.00000000
 
ion      s     py     pz     px    dxy    dyz    dz2    dxz  x2-y2    tot
    1  0.134  0.004  0.000  0.032  0.000  0.000  0.000  0.000  0.000  0.170
    2  0.134  0.004  0.000  0.032  0.000  0.000  0.000  0.000  0.000  0.170
    3  0.134  0.004  0.000  0.032  0.000  0.000  0.000  0.000  0.000  0.170
    4  0.134  0.004  0.000  0.032  0.000  0.000  0.000  0.000  0.000  0.170
tot    0.538  0.015  0.000  0.127  0.000  0.000  0.000  0.000  0.000  0.681
 
band     3 # energy   -5.66940406 # occ.  2.00000000
 
ion      s     py     pz     px    dxy    dyz    dz2    dxz  x2-y2    tot
    1  0.079  0.003  0.000  0.101  0.000  0.000  0.000  0.000  0.000  0.183
    2  0.079  0.003  0.000  0.101  0.000  0.000  0.000  0.000  0.000  0.183
    3  0.079  0.003  0.000  0.101  0.000  0.000  0.000  0.000  0.000  0.183
    4  0.079  0.003  0.000  0.101  0.000  0.000  0.000  0.000  0.000  0.183
tot    0.316  0.013  0.000  0.403  0.000  0.000  0.000  0.000  0.000  0.733
 
band     4 # energy   -2.68500755 # occ.  2.00000000
 
ion      s     py     pz     px    dxy    dyz    dz2    dxz  x2-y2    tot
    1  0.014  0.163  0.000  0.008  0.000  0.000  0.000  0.000  0.000  0.185
    2  0.014  0.163  0.000  0.008  0.000  0.000  0.000  0.000  0.000  0.185
    3  0.014  0.163  0.000  0.008  0.000  0.000  0.000  0.000  0.000  0.185
    4  0.014  0.163  0.000  0.008  0.000  0.000  0.000  0.000  0.000  0.185
tot    0.056  0.654  0.000  0.030  0.000  0.000  0.000  0.000  0.000  0.740
 
band     5 # energy   -1.05778615 # occ.  2.00000000
 
ion      s     py     pz     px    dxy    dyz    dz2    dxz  x2-y2    tot
    1  0.000  0.000  0.124  0.000  0.000  0.000  0.000  0.000  0.000  0.125
    2  0.000  0.000  0.124  0.000  0.000  0.000  0.000  0.000  0.000  0.125
    3  0.000  0.000  0.124  0.000  0.000  0.000  0.000  0.000  0.000  0.125
    4  0.000  0.000  0.124  0.000  0.000  0.000  0.000  0.000  0.000  0.125
tot    0.001  0.000  0.497  0.000  0.000  0.000  0.000  0.000  0.000  0.499
 
band     6 # energy   -0.68072117 # occ.  2.00000000
 
ion      s     py     pz     px    dxy    dyz    dz2    dxz  x2-y2    tot
    1  0.030  0.109  0.000  0.057  0.000  0.000  0.000  0.000  0.000  0.196
    2  0.030  0.109  0.000  0.057  0.000  0.000  0.000  0.000  0.000  0.196
    3  0.030  0.109  0.000  0.057  0.000  0.000  0.000  0.000  0.000  0.196
    4  0.030  0.109  0.000  0.057  0.000  0.000  0.000  0.000  0.000  0.196
tot    0.122  0.436  0.000  0.227  0.000  0.000  0.000  0.000  0.000  0.785
 
band     7 # energy    0.41621755 # occ.  2.00000000
 
ion      s     py     pz     px    dxy    dyz    dz2    dxz  x2-y2    tot
    1  0.001  0.069  0.000  0.128  0.000  0.000  0.000  0.000  0.000  0.199
    2  0.001  0.069  0.000  0.128  0.000  0.000  0.000  0.000  0.000  0.199
    3  0.001  0.069  0.000  0.128  0.000  0.000  0.000  0.000  0.000  0.199
    4  0.001  0.069  0.000  0.128  0.000  0.000  0.000  0.000  0.000  0.199
tot    0.005  0.277  0.000  0.513  0.000  0.000  0.000  0.000  0.000  0.795
 
band     8 # energy    1.26813876 # occ.  2.00000000
 
ion      s     py     pz     px    dxy    dyz    dz2    dxz  x2-y2    tot
    1  0.000  0.000  0.119  0.000  0.000  0.000  0.000  0.000  0.000  0.119
    2  0.000  0.000  0.119  0.000  0.000  0.000  0.000  0.000  0.000  0.119
    3  0.000  0.000  0.119  0.000  0.000  0.000  0.000  0.000  0.000  0.119
    4  0.000  0.000  0.119  0.000  0.000  0.000  0.000  0.000  0.000  0.119
tot    0.002  0.000  0.474  0.001  0.000  0.000  0.000  0.000  0.000  0.477
 
band     9 # energy    8.04643944 # occ.  0.00000000
 
ion      s     py     pz     px    dxy    dyz    dz2    dxz  x2-y2    tot
    1  0.000  0.000  0.125  0.000  0.000  0.000  0.000  0.000  0.000  0.126
    2  0.000  0.000  0.125  0.000  0.000  0.000  0.000  0.000  0.000  0.126
    3  0.000  0.000  0.125  0.000  0.000  0.000  0.000  0.000  0.000  0.126
    4  0.000  0.000  0.125  0.000  0.000  0.000  0.000  0.000  0.000  0.126
tot    0.000  0.000  0.502  0.001  0.000  0.000  0.000  0.000  0.000  0.503
 
band    10 # energy   10.30331231 # occ.  0.00000000
 
ion      s     py     pz     px    dxy    dyz    dz2    dxz  x2-y2    tot
    1  0.016  0.003  0.004  0.002  0.000  0.000  0.000  0.000  0.000  0.025
    2  0.016  0.003  0.004  0.002  0.000  0.000  0.000  0.000  0.000  0.025
    3  0.016  0.003  0.004  0.002  0.000  0.000  0.000  0.000  0.000  0.025