unknown system                          
           1
     4.254641    0.000000    0.000000
     0.000000    2.456565    0.000000
    -1.379070    0.000000    3.502830
   C 
     4
Direct configuration=     1
   0.16664447  0.00000000  0.99990696
   0.83335553  0.00000000  0.00009304
   0.66664447  0.50000000  0.99990696
   0.33335553  0.50000000  0.00009304
unknown system                          
           1
     4.336175    0.000000    0.001452
     0.000000    2.481563    0.000000
    -1.404302    0.000000    3.492493
   C 
     4
Direct configuration=     2
   0.16905273  1.00000000  0.99993741
   0.83094727  0.00000000  0.00006259
   0.66905273  0.50000000  0.99993741
   0.33094727  0.50000000  0.00006259
unknown system                          
           1
     4.275184    0.000000    0.000366
     0.000000    2.462863    0.000000
    -1.385427    0.000000    3.500225
   C 
     4
Direct configuration=     3
   0.16728520  0.00000000  0.99991530
   0.83271480  0.00000000  0.00008470
   0.66728520  0.50000000  0.99991530
   0.33271480  0.50000000  0.00008470
unknown system                          
           1
     4.274785    0.000000    0.000359
     0.000000    2.462741    0.000000
    -1.385304    0.000000    3.500276
   C 
     4
Direct configuration=     4
   0.16727349  0.00000000  0.99991515
   0.83272651  0.00000000  0.00008485
   0.66727349  0.50000000  0.99991515
   0.33272651  0.50000000  0.00008485
unknown system                          
           1
     4.287239    0.000000    0.001625
     0.000000    2.469243    0.000000
    -1.388302    0.000000    3.489847
   C 
     4
Direct configuration=     5
   0.16625634  1.00000000  0.99993660
   0.83374366  0.00000000  0.00006340
   0.66625634  0.50000000  0.99993660
   0.33374366  0.50000000  0.00006340
unknown system                          
           1
     4.278474    0.000000    0.000734
     0.000000    2.464667    0.000000
    -1.386192    0.000000    3.497187
   C 
     4
Direct configuration=     6
   0.16697000  0.00000000  0.99992120
   0.83303000  0.00000000  0.00007880
   0.66697000  0.50000000  0.99992120
   0.33303000  0.50000000  0.00007880
unknown system                          
           1
     4.279713    0.000000    0.002020
     0.000000    2.463222    0.000000
    -1.385540    0.000000    3.487037
   C 
     4
Direct configuration=     7
   0.16692593  1.00000000  0.99993095
   0.83307407  0.00000000  0.00006905
   0.66692593  0.50000000  0.99993095
   0.33307407  0.50000000  0.00006905
unknown system                          
           1
     4.283432    0.000000    0.005880
     0.000000    2.458888    0.000000
    -1.383585    0.000000    3.456588
   C 
     4
Direct configuration=     8
   0.16679380  0.00000000  0.99996034
   0.83320620  0.00000000  0.00003966
   0.66679380  0.50000000  0.99996034
   0.33320620  0.50000000  0.00003966
unknown system                          
           1
     4.290868    0.000000    0.013598
     0.000000    2.450220    0.000000
    -1.379675    0.000000    3.395690
   C 
     4
Direct configuration=     9
   0.16653000  1.00000000  0.00001992
   0.83347000  0.00000000  0.99998008
   0.66653000  0.50000000  0.00001992
   0.33347000  0.50000000  0.99998008
unknown system                          
           1
     4.286539    0.000000    0.009106
     0.000000    2.455265    0.000000
    -1.381951    0.000000    3.431137
   C 
     4
Direct configuration=    10
   0.16668301  0.00000000  0.99998427
   0.83331699  0.00000000  0.00001573
   0.66668301  0.50000000  0.99998427
   0.33331699  0.50000000  0.00001573
unknown system                          
           1
     4.285302    0.000000    0.007821
     0.000000    2.456708    0.000000
    -1.382602    0.000000    3.441274
   C 
     4
Direct configuration=    11
   0.16672685  0.00000000  0.99997424
   0.83327315  0.00000000  0.00002576
   0.66672685  0.50000000  0.99997424
   0.33327315  0.50000000  0.00002576
unknown system                          
           1
     4.285100    0.000000    0.008249
     0.000000    2.456914    0.000000
    -1.382187    0.000000    3.438052
   C 
     4
Direct configuration=    12
   0.16674165  0.00000000  0.99997319
   0.83325835  0.00000000  0.00002681
   0.66674165  0.50000000  0.99997319
   0.33325835  0.50000000  0.00002681
unknown system                          
           1
     4.284495    0.000000    0.009533
     0.000000    2.457532    0.000000
    -1.380943    0.000000    3.428387
   C 
     4
Direct configuration=    13
   0.16678604  0.00000000  0.99997004
   0.83321396  0.00000000  0.00002996
   0.66678604  0.50000000  0.99997004
   0.33321396  0.50000000  0.00002996
unknown system                          
           1
     4.283285    0.000000    0.012100
     0.000000    2.458768    0.000000
    -1.378455    0.000000    3.409057
   C 
     4
Direct configuration=    14
   0.16687482  1.00000000  0.99996368
   0.83312518  0.00000000  0.00003632
   0.66687482  0.50000000  0.99996368
   0.33312518  0.50000000  0.00003632
unknown system                          
           1
     4.280864    0.000000    0.017236
     0.000000    2.461240    0.000000
    -1.373480    0.000000    3.370397
   C 
     4
Direct configuration=    15
   0.16705237  0.00000000  0.99995076
   0.83294763  0.00000000  0.00004924
   0.66705237  0.50000000  0.99995076
   0.33294763  0.50000000  0.00004924
unknown system                          
           1
     4.276023    0.000000    0.027508
     0.000000    2.466183    0.000000
    -1.363528    0.000000    3.293077
   C 
     4
Direct configuration=    16
   0.16740743  1.00000000  0.99992408
   0.83259257  0.00000000  0.00007592
   0.66740743  0.50000000  0.99992408
   0.33259257  0.50000000  0.00007592
unknown system                          
           1
     4.278531    0.000000    0.022187
     0.000000    2.463622    0.000000
    -1.368683    0.000000    3.333127
   C 
     4
Direct configuration=    17
   0.16722356  0.00000000  0.99993880
   0.83277644  0.00000000  0.00006120
   0.66722356  0.50000000  0.99993880
   0.33277644  0.50000000  0.00006120
unknown system                          
           1
     4.274628    0.000000    0.025110
     0.000000    2.465018    0.000000
    -1.365054    0.000000    3.313093
   C 
     4
Direct configuration=    18
   0.16686417  1.00000000  0.99989435
   0.83313583  0.00000000  0.00010565
   0.66686417  0.50000000  0.99989435
   0.33313583  0.50000000  0.00010565
unknown system                          
           1
     4.276645    0.000000    0.023599
     0.000000    2.464297    0.000000
    -1.366929    0.000000    3.323446
   C 
     4
Direct configuration=    19
   0.16705004  0.00000000  0.99991730
   0.83294996  0.00000000  0.00008270
   0.66705004  0.50000000  0.99991730
   0.33294996  0.50000000  0.00008270
unknown system                          
           1
     4.276479    0.000000    0.023724
     0.000000    2.464356    0.000000
    -1.366774    0.000000    3.322591
   C 
     4
Direct configuration=    20
   0.16703471  1.00000000  0.99991540
   0.83296529  0.00000000  0.00008460
   0.66703471  0.50000000  0.99991540
   0.33296529  0.50000000  0.00008460
unknown system                          
           1
     4.275553    0.000000    0.024417
     0.000000    2.464687    0.000000
    -1.365914    0.000000    3.317842
   C 
     4
Direct configuration=    21
   0.16694947  0.00000000  0.99990487
   0.83305053  0.00000000  0.00009513
   0.66694947  0.50000000  0.99990487
   0.33305053  0.50000000  0.00009513
