<?xml version="1.0" encoding="ISO-8859-1"?>
<modeling>
 <generator>
  <i name="program" type="string">vasp </i>
  <i name="version" type="string">6.5.1  </i>
  <i name="subversion" type="string">10Mar25 (build May 31 2025 23:02:25) complex                          parallel </i>
  <i name="platform" type="string">LinuxIFC </i>
  <i name="date" type="string">2026 01 18 </i>
  <i name="time" type="string">23:34:42 </i>
 </generator>
 <incar>
  <i type="string" name="PREC">accurate</i>
  <i type="string" name="ALGO">fast</i>
  <i type="int" name="IBRION">     2</i>
  <i name="EDIFF">      0.00001000</i>
  <i name="EDIFFG">     -0.03000000</i>
  <i type="int" name="NSW">   100</i>
  <i type="int" name="ISIF">     3</i>
  <i name="ENCUT">    520.00000000</i>
  <i type="string" name="EFERMI">midgap</i>
  <i type="int" name="ISMEAR">     0</i>
  <i name="SIGMA">      0.05000000</i>
  <i name="KSPACING">      0.40000000</i>
  <i type="int" name="LORBIT">    11</i>
  <i type="logical" name="LASPH"> T  </i>
  <i type="logical" name="GGA_COMPAT"> F  </i>
  <i type="string" name="GGA">PE</i>
  <i type="int" name="IVDW">    12</i>
 </incar>
 <primitive_cell>
  <structure name="primitive_cell" >
   <crystal>
    <varray name="basis" >
     <v>       2.12732031      -1.22828244       0.00000000 </v>
     <v>       2.12732031       1.22828244       0.00000000 </v>
     <v>      -1.37906963       0.00000000       3.50283008 </v>
    </varray>
    <i name="volume">     18.30544095 </i>
    <varray name="rec_basis" >
     <v>       0.23503748      -0.40707250       0.09253462 </v>
     <v>       0.23503748       0.40707250       0.09253462 </v>
     <v>       0.00000000       0.00000000       0.28548345 </v>
    </varray>
   </crystal>
   <varray name="positions" >
    <v>       0.16664447       0.16664447       0.99990696 </v>
    <v>       0.83335553       0.83335553       0.00009304 </v>
   </varray>
  </structure>
  <varray name="primitive_index" >
   <v type="int" >        1 </v>
   <v type="int" >        2 </v>
  </varray>
 </primitive_cell>
 <kpoints>
  <generation param="Gamma">
   <v type="int" name="divisions">       4        7        5 </v>
   <v name="usershift">      0.00000000       0.00000000       0.00000000 </v>
   <v name="genvec1">      0.25000000       0.00000000      -0.00000000 </v>
   <v name="genvec2">      0.00000000       0.14285714       0.00000000 </v>
   <v name="genvec3">      0.00000000       0.00000000       0.20000000 </v>
   <v name="shift">      0.00000000       0.00000000       0.00000000 </v>
  </generation>
  <varray name="kpointlist" >
   <v>       0.00000000       0.00000000       0.00000000 </v>
   <v>       0.25000000       0.00000000       0.00000000 </v>
   <v>       0.50000000       0.00000000       0.00000000 </v>
   <v>       0.00000000       0.14285714       0.00000000 </v>
   <v>       0.25000000       0.14285714       0.00000000 </v>
   <v>       0.50000000       0.14285714       0.00000000 </v>
   <v>       0.00000000       0.28571429       0.00000000 </v>
   <v>       0.25000000       0.28571429       0.00000000 </v>
   <v>       0.50000000       0.28571429       0.00000000 </v>
   <v>       0.00000000       0.42857143       0.00000000 </v>
   <v>       0.25000000       0.42857143       0.00000000 </v>
   <v>       0.50000000       0.42857143       0.00000000 </v>
   <v>       0.00000000       0.00000000       0.20000000 </v>
   <v>       0.25000000       0.00000000       0.20000000 </v>
   <v>       0.50000000       0.00000000       0.20000000 </v>
   <v>      -0.25000000       0.00000000       0.20000000 </v>
   <v>       0.00000000       0.14285714       0.20000000 </v>
   <v>       0.25000000       0.14285714       0.20000000 </v>
   <v>       0.50000000       0.14285714       0.20000000 </v>
   <v>      -0.25000000       0.14285714       0.20000000 </v>
   <v>       0.00000000       0.28571429       0.20000000 </v>
   <v>       0.25000000       0.28571429       0.20000000 </v>
   <v>       0.50000000       0.28571429       0.20000000 </v>
   <v>      -0.25000000       0.28571429       0.20000000 </v>
   <v>       0.00000000       0.42857143       0.20000000 </v>
   <v>       0.25000000       0.42857143       0.20000000 </v>
   <v>       0.50000000       0.42857143       0.20000000 </v>
   <v>      -0.25000000       0.42857143       0.20000000 </v>
   <v>       0.00000000       0.00000000       0.40000000 </v>
   <v>       0.25000000       0.00000000       0.40000000 </v>
   <v>       0.50000000       0.00000000       0.40000000 </v>
   <v>      -0.25000000       0.00000000       0.40000000 </v>
   <v>       0.00000000       0.14285714       0.40000000 </v>
   <v>       0.25000000       0.14285714       0.40000000 </v>
   <v>       0.50000000       0.14285714       0.40000000 </v>
   <v>      -0.25000000       0.14285714       0.40000000 </v>
   <v>       0.00000000       0.28571429       0.40000000 </v>
   <v>       0.25000000       0.28571429       0.40000000 </v>
   <v>       0.50000000       0.28571429       0.40000000 </v>
   <v>      -0.25000000       0.28571429       0.40000000 </v>
   <v>       0.00000000       0.42857143       0.40000000 </v>
   <v>       0.25000000       0.42857143       0.40000000 </v>
   <v>       0.50000000       0.42857143       0.40000000 </v>
   <v>      -0.25000000       0.42857143       0.40000000 </v>
  </varray>
  <varray name="weights" >
   <v>       0.00714286 </v>
   <v>       0.01428571 </v>
   <v>       0.00714286 </v>
   <v>       0.01428571 </v>
   <v>       0.02857143 </v>
   <v>       0.01428571 </v>
   <v>       0.01428571 </v>
   <v>       0.02857143 </v>
   <v>       0.01428571 </v>
   <v>       0.01428571 </v>
   <v>       0.02857143 </v>
   <v>       0.01428571 </v>
   <v>       0.01428571 </v>
   <v>       0.01428571 </v>
   <v>       0.01428571 </v>
   <v>       0.01428571 </v>
   <v>       0.02857143 </v>
   <v>       0.02857143 </v>
   <v>       0.02857143 </v>
   <v>       0.02857143 </v>
   <v>       0.02857143 </v>
   <v>       0.02857143 </v>
   <v>       0.02857143 </v>
   <v>       0.02857143 </v>
   <v>       0.02857143 </v>
   <v>       0.02857143 </v>
   <v>       0.02857143 </v>
   <v>       0.02857143 </v>
   <v>       0.01428571 </v>
   <v>       0.01428571 </v>
   <v>       0.01428571 </v>
   <v>       0.01428571 </v>
   <v>       0.02857143 </v>
   <v>       0.02857143 </v>
   <v>       0.02857143 </v>
   <v>       0.02857143 </v>
   <v>       0.02857143 </v>
   <v>       0.02857143 </v>
   <v>       0.02857143 </v>
   <v>       0.02857143 </v>
   <v>       0.02857143 </v>
   <v>       0.02857143 </v>
   <v>       0.02857143 </v>
   <v>       0.02857143 </v>
  </varray>
 </kpoints>
 <parameters>
  <separator name="general" >
   <i type="string" name="SYSTEM">unknown system</i>
   <i type="logical" name="LCOMPAT"> F  </i>
  </separator>
  <separator name="electronic" >
   <i type="string" name="PREC">accura</i>
   <i name="ENMAX">    520.00000000</i>
   <i name="ENAUG">    644.87300000</i>
   <i name="EDIFF">      0.00001000</i>
   <i type="int" name="IALGO">    68</i>
   <i type="int" name="IWAVPR">    11</i>
   <i type="int" name="NBANDS">    12</i>
   <i type="int" name="NBANDSLOW">    -1</i>
   <i type="int" name="NBANDSHIGH">    -1</i>
   <i name="NELECT">     16.00000000</i>
   <i type="int" name="TURBO">     0</i>
   <i type="int" name="IRESTART">     0</i>
   <i type="int" name="NREBOOT">     0</i>
   <i type="int" name="NMIN">     0</i>
   <i name="EREF">      0.00000000</i>
   <separator name="electronic smearing" >
    <i type="int" name="ISMEAR">     0</i>
    <i name="SIGMA">      0.05000000</i>
    <i name="KSPACING">      0.40000000</i>
    <i type="logical" name="KGAMMA"> T  </i>
    <i type="logical" name="KBLOWUP"> T  </i>
   </separator>
   <separator name="electronic projectors" >
    <i type="logical" name="LREAL"> F  </i>
    <v name="ROPT">      0.00000000</v>
    <i type="int" name="LMAXPAW">  -100</i>
    <i type="int" name="LMAXMIX">     2</i>
    <i type="logical" name="NLSPLINE"> F  </i>
   </separator>
   <separator name="electronic startup" >
    <i type="int" name="ISTART">     0</i>
    <i type="int" name="ICHARG">     2</i>
    <i type="int" name="INIWAV">     1</i>
   </separator>
   <separator name="electronic spin" >
    <i type="int" name="ISPIN">     1</i>
    <i type="logical" name="LNONCOLLINEAR"> F  </i>
    <v name="MAGMOM">      1.00000000      1.00000000      1.00000000      1.00000000</v>
    <i name="NUPDOWN">     -1.00000000</i>
    <i type="logical" name="LSORBIT"> F  </i>
    <v name="SAXIS">      0.00000000      0.00000000      1.00000000</v>
    <i type="logical" name="LSPIRAL"> F  </i>
    <v name="QSPIRAL">      0.00000000      0.00000000      0.00000000</v>
    <i type="logical" name="LZEROZ"> F  </i>
   </separator>
   <separator name="electronic exchange-correlation" >
    <i type="logical" name="LASPH"> T  </i>
   </separator>
   <separator name="electronic convergence" >
    <i type="int" name="NELM">    60</i>
    <i type="int" name="NELMDL">    -5</i>
    <i type="int" name="NELMIN">     2</i>
    <i name="ENINI">    520.00000000</i>
    <separator name="electronic convergence detail" >
     <i type="logical" name="LDIAG"> T  </i>
     <i type="logical" name="LSUBROT"> F  </i>
     <i type="logical" name="LROBUST"> F  </i>
     <i type="int" name="ISEARCH">     0</i>
     <i name="WEIMIN">      0.00100000</i>
     <i name="EBREAK">      0.00000021</i>
     <i name="DEPER">      0.30000000</i>
     <i type="int" name="NRMM">     4</i>
     <i name="TIME">      0.40000000</i>
    </separator>
   </separator>
   <separator name="electronic mixer" >
    <i name="AMIX">      0.40000000</i>
    <i name="BMIX">      1.00000000</i>
    <i name="AMIN">      0.10000000</i>
    <i name="AMIX_MAG">      1.60000000</i>
    <i name="BMIX_MAG">      1.00000000</i>
    <separator name="electronic mixer details" >
     <i type="int" name="IMIX">     4</i>
     <i type="logical" name="MIXFIRST"> F  </i>
     <i type="int" name="MAXMIX">   -45</i>
     <i name="WC">    100.00000000</i>
     <i type="int" name="INIMIX">     1</i>
     <i type="int" name="MIXPRE">     1</i>
     <i type="int" name="MREMOVE">     5</i>
    </separator>
   </separator>
   <separator name="electronic dipolcorrection" >
    <i type="logical" name="LDIPOL"> F  </i>
    <i type="logical" name="LMONO"> F  </i>
    <i type="int" name="IDIPOL">     0</i>
    <i name="EPSILON">      1.00000000</i>
    <v name="DIPOL">   -100.00000000   -100.00000000   -100.00000000</v>
    <i name="EFIELD">      0.00000000</i>
    <i type="logical" name="LVACPOTAV"> F  </i>
   </separator>
  </separator>
  <separator name="grids" >
   <i type="int" name="NGX">    32</i>
   <i type="int" name="NGY">    18</i>
   <i type="int" name="NGZ">    28</i>
   <i type="int" name="NGXF">    64</i>
   <i type="int" name="NGYF">    36</i>
   <i type="int" name="NGZF">    56</i>
   <i type="logical" name="ADDGRID"> F  </i>
  </separator>
  <separator name="ionic" >
   <i type="int" name="NSW">   100</i>
   <i type="int" name="IBRION">     2</i>
   <i type="int" name="MDALGO">     0</i>
   <i type="int" name="ISIF">     3</i>
   <i name="PSTRESS">      0.00000000</i>
   <i name="EDIFFG">     -0.03000000</i>
   <i type="int" name="NFREE">     1</i>
   <i name="POTIM">      0.50000000</i>
   <i name="SMASS">     -3.00000000</i>
   <i name="SCALEE">      1.00000000</i>
  </separator>
  <separator name="ionic md" >
   <i name="TEBEG">      0.00010000</i>
   <i name="TEEND">      0.00010000</i>
   <i type="int" name="NBLOCK">     1</i>
   <i type="int" name="KBLOCK">   100</i>
   <i type="int" name="NPACO">   256</i>
   <i name="APACO">     10.00000000</i>
  </separator>
  <separator name="symmetry" >
   <i type="int" name="ISYM">     2</i>
   <i name="SYMPREC">      0.00001000</i>
  </separator>
  <separator name="dos" >
   <i type="int" name="LORBIT">    11</i>
   <v name="RWIGS">     -1.00000000</v>
   <i type="int" name="NEDOS">   301</i>
   <i name="EMIN">     10.00000000</i>
   <i name="EMAX">    -10.00000000</i>
   <i name="EFERMI">      0.00000000</i>
  </separator>
  <separator name="writing" >
   <i type="int" name="NWRITE">     2</i>
   <i type="logical" name="LWAVE"> T  </i>
   <i type="logical" name="LDOWNSAMPLE"> F  </i>
   <i type="logical" name="LCHARG"> T  </i>
   <i type="logical" name="LPARD"> F  </i>
   <i type="logical" name="LVTOT"> F  </i>
   <i type="logical" name="LVHAR"> F  </i>
   <i type="logical" name="LELF"> F  </i>
   <i type="logical" name="LOPTICS"> F  </i>
   <v name="STM">      0.00000000      0.00000000      0.00000000      0.00000000      0.00000000      0.00000000      0.00000000</v>
  </separator>
  <separator name="performance" >
   <i type="int" name="NPAR">     4</i>
   <i type="int" name="NSIM">     4</i>
   <i type="int" name="NBLK">    -1</i>
   <i type="logical" name="LPLANE"> T  </i>
   <i type="logical" name="LSCALAPACK"> T  </i>
   <i type="logical" name="LSCAAWARE"> F  </i>
   <i type="logical" name="LSCALU"> F  </i>
   <i type="logical" name="LASYNC"> F  </i>
   <i type="logical" name="LORBITALREAL"> F  </i>
  </separator>
  <separator name="miscellaneous" >
   <i type="int" name="IDIOT">     3</i>
   <i type="int" name="PHON_NSTRUCT">    -1</i>
   <i type="logical" name="LMUSIC"> F  </i>
   <v name="POMASS">     12.01100000</v>
   <v name="DARWINR">      0.00000000</v>
   <v name="DARWINV">      1.00000000</v>
   <i type="logical" name="LCORR"> T  </i>
  </separator>
  <i type="logical" name="GGA_COMPAT"> F  </i>
  <i type="logical" name="LBERRY"> F  </i>
  <i type="int" name="ICORELEVEL">     0</i>
  <i type="logical" name="LDAU"> F  </i>
  <i type="int" name="I_CONSTRAINED_M">     0</i>
  <separator name="electronic exchange-correlation" >
   <i type="string" name="GGA    ">PE</i>
   <i type="string" name="XC_C">1</i>
   <i type="int" name="VOSKOWN">     0</i>
   <i type="logical" name="LHFCALC"> F  </i>
   <i type="string" name="PRECFOCK"></i>
   <i type="logical" name="LSYMGRAD"> F  </i>
   <i type="logical" name="LHFONE"> F  </i>
   <i type="logical" name="LRHFCALC"> F  </i>
   <i type="logical" name="LTHOMAS"> F  </i>
   <i type="logical" name="LMODELHF"> F  </i>
   <i type="logical" name="LFOCKACE"> F  </i>
   <i name="ENCUT4O">     -1.00000000</i>
   <i type="int" name="EXXOEP">     0</i>
   <i type="int" name="FOURORBIT">     0</i>
   <i name="AEXX">      0.00000000</i>
   <i name="HFALPHA">      0.00000000</i>
   <i name="MCALPHA">      0.00000000</i>
   <i name="ALDAX">      1.00000000</i>
   <i name="AGGAX">      1.00000000</i>
   <i name="AMGGAX">      1.00000000</i>
   <i name="ALDAC">      1.00000000</i>
   <i name="AGGAC">      1.00000000</i>
   <i name="AMGGAC">      1.00000000</i>
   <i type="int" name="NKREDX">     1</i>
   <i type="int" name="NKREDY">     1</i>
   <i type="int" name="NKREDZ">     1</i>
   <i type="logical" name="SHIFTRED"> F  </i>
   <i type="logical" name="ODDONLY"> F  </i>
   <i type="logical" name="EVENONLY"> F  </i>
   <i type="int" name="LMAXFOCK">     0</i>
   <i type="int" name="NMAXFOCKAE">     0</i>
   <i type="logical" name="LFOCKAEDFT"> F  </i>
   <i name="HFSCREEN">      0.00000000</i>
   <i name="HFSCREENC">      0.00000000</i>
   <i type="int" name="NBANDSGWLOW">     0</i>
  </separator>
  <separator name="vdW DFT" >
   <i type="logical" name="LUSE_VDW"> F  </i>
   <i type="int" name="IVDW_NL">    -1</i>
   <i type="logical" name="LSPIN_VDW"> F  </i>
   <i name="ZAB_VDW">     -0.84910000</i>
   <i name="GAMMA_VDW">      1.39626340</i>
   <i name="ALPHA_VDW">      0.00000000</i>
   <i name="PARAM1">      0.12340000</i>
   <i name="PARAM2">      1.00000000</i>
   <i name="BPARAM">      6.30000000</i>
   <i name="CPARAM">      0.00930000</i>
  </separator>
  <separator name="model GW" >
   <i type="int" name="MODEL_GW">     0</i>
   <i name="MODEL_EPS0">      5.49163229</i>
   <i name="MODEL_ALPHA">      1.00000000</i>
  </separator>
  <separator name="linear response parameters" >
   <i type="logical" name="LEPSILON"> F  </i>
   <i type="logical" name="LRPA"> F  </i>
   <i type="logical" name="LNABLA"> F  </i>
   <i type="logical" name="LVEL"> F  </i>
   <i name="CSHIFT">      0.10000000</i>
   <i name="OMEGAMAX">     -1.00000000</i>
   <i name="DEG_THRESHOLD">      0.00200000</i>
   <i name="RTIME">     -0.10000000</i>
   <i name="WPLASMAI">      0.00000000</i>
   <v name="DFIELD">      0.00000000      0.00000000      0.00000000</v>
   <v name="WPLASMA">      0.00000000      0.00000000      0.00000000      0.00000000      0.00000000      0.00000000      0.00000000      0.00000000      0.00000000</v>
  </separator>
  <separator name="orbital magnetization" >
   <i type="logical" name="NUCIND"> F  </i>
   <v name="MAGPOS">      0.00000000      0.00000000      0.00000000</v>
   <i type="logical" name="LNICSALL"> T  </i>
   <i type="logical" name="ORBITALMAG"> F  </i>
   <i type="logical" name="LMAGBLOCH"> F  </i>
   <i type="logical" name="LCHIMAG"> F  </i>
   <i type="logical" name="LGAUGE"> T  </i>
   <i type="int" name="MAGATOM">     0</i>
   <v name="MAGDIPOL">      0.00000000      0.00000000      0.00000000</v>
   <v name="AVECCONST">      0.00000000      0.00000000      0.00000000</v>
  </separator>
  <separator name="response functions" >
   <i type="logical" name="LALL_IN_ONE"> F  </i>
   <i type="int" name="IALL_IN_ONE">    -1</i>
   <i type="int" name="NBANDS_WAVE">    -1</i>
   <i type="logical" name="LFINITE_TEMPERATURE"> F  </i>
   <i type="logical" name="LADDER"> F  </i>
   <i type="logical" name="LRPAFORCE"> F  </i>
   <i type="logical" name="LFXC"> F  </i>
   <i type="logical" name="LHARTREE"> T  </i>
   <i type="int" name="IBSE">     2</i>
   <v type="int" name="KPOINT">    -1     0     0     0</v>
   <i type="logical" name="LTCTC"> F  </i>
   <i type="logical" name="LTCTE"> F  </i>
   <i type="logical" name="LTETE"> F  </i>
   <i type="logical" name="LTRIPLET"> F  </i>
   <i type="logical" name="LFXCEPS"> F  </i>
   <i type="logical" name="LFXHEG"> F  </i>
   <i type="int" name="NATURALO">     2</i>
   <i type="logical" name="LHOLEGF"> F  </i>
   <i type="logical" name="L2ORDER"> F  </i>
   <i type="logical" name="LDMP1"> F  </i>
   <i type="logical" name="LMP2LT"> F  </i>
   <i type="logical" name="LSMP2LT"> F  </i>
   <i type="logical" name="LGWLF"> F  </i>
   <i name="ENCUTGW">     -1.60000002</i>
   <i name="ENCUTGWSOFT">     -1.60000002</i>
   <i name="ENCUTLF">     -1.00000000</i>
   <i type="logical" name="ESF_SPLINES"> F  </i>
   <i name="ESF_CONV">      0.01000000</i>
   <i type="int" name="ESF_NINTER">    15</i>
   <i type="int" name="LMAXMP2">    -1</i>
   <i name="SCISSOR">      0.00000000</i>
   <i type="int" name="NOMEGA">     0</i>
   <i type="int" name="NOMEGAR">     0</i>
   <i type="int" name="NBANDSGW">    -1</i>
   <i type="int" name="NBANDSO">    -1</i>
   <i type="int" name="NBANDSV">    -1</i>
   <i type="int" name="NELMGW">     1</i>
   <i type="int" name="NELMHF">     1</i>
   <i type="int" name="DIM">     3</i>
   <i type="int" name="IESPILON">     4</i>
   <i type="int" name="ANTIRES">     0</i>
   <i name="OMEGAMAX">    -30.00000000</i>
   <i name="OMEGAMIN">    -30.00000000</i>
   <i name="OMEGATL">   -200.00000000</i>
   <i type="int" name="OMEGAGRID">     0</i>
   <i name="CSHIFT">     -0.10000000</i>
   <i type="logical" name="LSELFENERGY"> F  </i>
   <i type="logical" name="LSPECTRAL"> F  </i>
   <i type="logical" name="LSPECTRALGW"> F  </i>
   <i type="logical" name="LSINGLES"> F  </i>
   <i type="logical" name="LFERMIGW"> F  </i>
   <i type="logical" name="ODDONLYGW"> F  </i>
   <i type="logical" name="EVENONLYGW"> F  </i>
   <i type="int" name="NKREDLFX">     1</i>
   <i type="int" name="NKREDLFY">     1</i>
   <i type="int" name="NKREDLFZ">     1</i>
   <i type="int" name="MAXMEM">  2800</i>
   <i type="int" name="TELESCOPE">     0</i>
   <i type="int" name="NTAUPAR">    -1</i>
   <i type="int" name="NOMEGAPAR">    -1</i>
   <i name="DAMP_NEWTON">      0.80000001</i>
   <i name="LAMBDA">      1.00000000</i>
  </separator>
  <separator name="External order field" >
   <i name="OFIELD_KAPPA">      0.00000000</i>
   <v name="OFIELD_K">      0.00000000      0.00000000      0.00000000</v>
   <i name="OFIELD_Q6_NEAR">      0.00000000</i>
   <i name="OFIELD_Q6_FAR">      0.00000000</i>
   <i name="OFIELD_A">      0.00000000</i>
  </separator>
  <separator name="optional k-points parameters" >
   <i type="int" name="KPOINTS_OPT_MODE">     1</i>
   <i type="logical" name="LKPOINTS_OPT"> F  </i>
  </separator>
 </parameters>
 <atominfo>
  <atoms>       4 </atoms>
  <types>       1 </types>
  <array name="atoms" >
   <dimension dim="1">ion</dimension>
   <field type="string">element</field>
   <field type="int">atomtype</field>
   <set>
    <rc><c>C </c><c>   1</c></rc>
    <rc><c>C </c><c>   1</c></rc>
    <rc><c>C </c><c>   1</c></rc>
    <rc><c>C </c><c>   1</c></rc>
   </set>
  </array>
  <array name="atomtypes" >
   <dimension dim="1">type</dimension>
   <field type="int">atomspertype</field>
   <field type="string">element</field>
   <field>mass</field>
   <field>valence</field>
   <field type="string">pseudopotential</field>
   <set>
    <rc><c>   4</c><c>C </c><c>     12.01100000</c><c>      4.00000000</c><c>  PAW_PBE C 08Apr2002                   </c></rc>
   </set>
  </array>
 </atominfo>
 <structure name="initialpos" >
  <crystal>
   <varray name="basis" >
    <v>       4.25464061       0.00000000       0.00000000 </v>
    <v>       0.00000000       2.45656488       0.00000000 </v>
    <v>      -1.37906963       0.00000000       3.50283008 </v>
   </varray>
   <i name="volume">     36.61088191 </i>
   <varray name="rec_basis" >
    <v>       0.23503748       0.00000000       0.09253462 </v>
    <v>       0.00000000       0.40707250       0.00000000 </v>
    <v>       0.00000000       0.00000000       0.28548345 </v>
   </varray>
  </crystal>
  <varray name="positions" >
   <v>       0.16664447       0.00000000       0.99990696 </v>
   <v>       0.83335553       0.00000000       0.00009304 </v>
   <v>       0.66664447       0.50000000       0.99990696 </v>
   <v>       0.33335553       0.50000000       0.00009304 </v>
  </varray>
 </structure>
 <calculation>
  <scstep>
   <time name="dav">    0.15    0.15</time>
   <time name="total">    0.19    0.19</time>
   <energy>
    <i name="alphaZ">     35.90045876 </i>
    <i name="ewald">   -432.79365360 </i>
    <i name="hartreedc">   -167.35140529 </i>
    <i name="XCdc">     53.03433291 </i>
    <i name="pawpsdc">    434.08818552 </i>
    <i name="pawaedc">   -436.36580876 </i>
    <i name="eentropy">     -0.00116643 </i>
    <i name="bandstr">    -35.69623878 </i>
    <i name="atom">    588.59557325 </i>
    <i name="e_fr_energy">     39.41027757 </i>
    <i name="e_wo_entrp">     39.41144400 </i>
    <i name="e_0_energy">     39.41086078 </i>
   </energy>
  </scstep>
  <scstep>
   <time name="dav">    0.19    0.19</time>
   <time name="total">    0.19    0.19</time>
   <energy>
    <i name="e_fr_energy">    -35.86131975 </i>
    <i name="e_wo_entrp">    -35.86131975 </i>
    <i name="e_0_energy">    -35.86131975 </i>
   </energy>
  </scstep>
  <scstep>
   <time name="dav">    0.17    0.17</time>
   <time name="total">    0.17    0.17</time>
   <energy>
    <i name="e_fr_energy">    -39.29238333 </i>
    <i name="e_wo_entrp">    -39.29238333 </i>
    <i name="e_0_energy">    -39.29238333 </i>
   </energy>
  </scstep>
  <scstep>
   <time name="dav">    0.17    0.17</time>
   <time name="total">    0.17    0.17</time>
   <energy>
    <i name="e_fr_energy">    -39.33689451 </i>
    <i name="e_wo_entrp">    -39.33689451 </i>
    <i name="e_0_energy">    -39.33689451 </i>
   </energy>
  </scstep>
  <scstep>
   <time name="dav">    0.17    0.17</time>
   <time name="total">    0.19    0.19</time>
   <energy>
    <i name="e_fr_energy">    -39.33797477 </i>
    <i name="e_wo_entrp">    -39.33797477 </i>
    <i name="e_0_energy">    -39.33797477 </i>
   </energy>
  </scstep>
  <scstep>
   <time name="diag">    0.03    0.03</time>
   <time name="diis">    0.09    0.09</time>
   <time name="orth">    0.00    0.00</time>
   <time name="total">    0.19    0.19</time>
   <energy>
    <i name="e_fr_energy">    -37.44242737 </i>
    <i name="e_wo_entrp">    -37.44242737 </i>
    <i name="e_0_energy">    -37.44242737 </i>
   </energy>
  </scstep>
  <scstep>
   <time name="diag">    0.03    0.03</time>
   <time name="diis">    0.09    0.09</time>
   <time name="orth">    0.00    0.00</time>
   <time name="total">    0.19    0.19</time>
   <energy>
    <i name="e_fr_energy">    -36.84310209 </i>
    <i name="e_wo_entrp">    -36.84310209 </i>
    <i name="e_0_energy">    -36.84310209 </i>
   </energy>
  </scstep>
  <scstep>
   <time name="diag">    0.03    0.03</time>
   <time name="diis">    0.09    0.09</time>
   <time name="orth">    0.00    0.00</time>
   <time name="total">    0.19    0.19</time>
   <energy>
    <i name="e_fr_energy">    -36.87133820 </i>
    <i name="e_wo_entrp">    -36.87133820 </i>
    <i name="e_0_energy">    -36.87133820 </i>
   </energy>
  </scstep>
  <scstep>
   <time name="diag">    0.03    0.03</time>
   <time name="diis">    0.09    0.09</time>
   <time name="orth">    0.00    0.00</time>
   <time name="total">    0.19    0.19</time>
   <energy>
    <i name="e_fr_energy">    -36.85869621 </i>
    <i name="e_wo_entrp">    -36.85869621 </i>
    <i name="e_0_energy">    -36.85869621 </i>
   </energy>
  </scstep>
  <scstep>
   <time name="diag">    0.03    0.03</time>
   <time name="diis">    0.10    0.10</time>
   <time name="orth">    0.00    0.00</time>
   <time name="total">    0.20    0.20</time>
   <energy>
    <i name="e_fr_energy">    -36.85969098 </i>
    <i name="e_wo_entrp">    -36.85969098 </i>
    <i name="e_0_energy">    -36.85969098 </i>
   </energy>
  </scstep>
  <scstep>
   <time name="diag">    0.04    0.04</time>
   <time name="diis">    0.09    0.09</time>
   <time name="orth">    0.00    0.00</time>
   <time name="total">    0.19    0.19</time>
   <energy>
    <i name="e_fr_energy">    -36.85991419 </i>
    <i name="e_wo_entrp">    -36.85991419 </i>
    <i name="e_0_energy">    -36.85991419 </i>
   </energy>
  </scstep>
  <scstep>
   <time name="diag">    0.03    0.03</time>
   <time name="diis">    0.09    0.09</time>
   <time name="orth">    0.00    0.00</time>
   <time name="total">    0.19    0.19</time>
   <energy>
    <i name="e_fr_energy">    -36.86022943 </i>
    <i name="e_wo_entrp">    -36.86022943 </i>
    <i name="e_0_energy">    -36.86022943 </i>
   </energy>
  </scstep>
  <scstep>
   <time name="diag">    0.03    0.03</time>
   <time name="diis">    0.09    0.09</time>
   <time name="orth">    0.00    0.00</time>
   <time name="total">    0.19    0.19</time>
   <energy>
    <i name="e_fr_energy">    -36.86018445 </i>
    <i name="e_wo_entrp">    -36.86018445 </i>
    <i name="e_0_energy">    -36.86018445 </i>
   </energy>
  </scstep>
  <scstep>
   <time name="diag">    0.03    0.03</time>
   <time name="diis">    0.09    0.09</time>
   <time name="orth">    0.00    0.00</time>
   <time name="total">    0.19    0.19</time>
   <energy>
    <i name="e_fr_energy">    -36.86000502 </i>
    <i name="e_wo_entrp">    -36.86000502 </i>
    <i name="e_0_energy">    -36.86000502 </i>
   </energy>
  </scstep>
  <scstep>
   <time name="diag">    0.03    0.03</time>
   <time name="diis">    0.09    0.09</time>
   <time name="orth">    0.00    0.00</time>
   <time name="total">    0.19    0.19</time>
   <energy>
    <i name="e_fr_energy">    -36.85995980 </i>
    <i name="e_wo_entrp">    -36.85995980 </i>
    <i name="e_0_energy">    -36.85995980 </i>
   </energy>
  </scstep>
  <scstep>
   <time name="diag">    0.03    0.03</time>
   <time name="diis">    0.07    0.07</time>
   <time name="orth">    0.00    0.00</time>
   <time name="total">    0.16    0.16</time>
   <energy>
    <i name="alphaZ">     35.90045876 </i>
    <i name="ewald">   -432.79365360 </i>
    <i name="hartreedc">   -204.32522305 </i>
    <i name="XCdc">     55.29206476 </i>
    <i name="pawpsdc">   1700.71914532 </i>
    <i name="pawaedc">  -1703.46632989 </i>
    <i name="eentropy">     -0.00000000 </i>
    <i name="bandstr">    -76.78198929 </i>
    <i name="atom">    588.59557325 </i>
    <i name="e_fr_energy">    -36.85995374 </i>
    <i name="e_wo_entrp">    -36.85995374 </i>
    <i name="e_0_energy">    -36.85995374 </i>
   </energy>
  </scstep>
  <structure>
   <crystal>
    <varray name="basis" >
     <v>       4.25464061       0.00000000       0.00000000 </v>
     <v>       0.00000000       2.45656488       0.00000000 </v>
     <v>      -1.37906963       0.00000000       3.50283008 </v>
    </varray>
    <i name="volume">     36.61088191 </i>
    <varray name="rec_basis" >
     <v>       0.23503748       0.00000000       0.09253462 </v>
     <v>       0.00000000       0.40707250       0.00000000 </v>
     <v>       0.00000000       0.00000000       0.28548345 </v>
    </varray>
   </crystal>
   <varray name="positions" >
    <v>       0.16664447       0.00000000       0.99990696 </v>
    <v>       0.83335553       0.00000000       0.00009304 </v>
    <v>       0.66664447       0.50000000       0.99990696 </v>
    <v>       0.33335553       0.50000000       0.00009304 </v>
   </varray>
  </structure>
  <varray name="forces" >
   <v>       0.21151979      -0.00000000       0.00221093 </v>
   <v>      -0.21151979       0.00000000      -0.00221093 </v>
   <v>       0.21151979      -0.00000000       0.00221093 </v>
   <v>      -0.21151979      -0.00000000      -0.00221093 </v>
  </varray>
  <varray name="stress" >
   <v>      69.53591682       0.00000000       1.23860062 </v>
   <v>       0.00000000      36.92438502       0.00000000 </v>
   <v>       1.23860042       0.00000000     -10.22080765 </v>
  </varray>
  <energy>
   <i name="e_fr_energy">    -37.45422575 </i>
   <i name="e_wo_entrp">    -37.45422575 </i>
   <i name="e_0_energy">    -37.45422575 </i>
  </energy>
  <time name="totalsc">    3.34    3.36</time>
 </calculation>
 <calculation>
  <scstep>
   <time name="dav">    0.17    0.17</time>
   <time name="total">    0.22    0.22</time>
   <energy>
    <i name="alphaZ">     34.96906495 </i>
    <i name="ewald">   -437.36888220 </i>
    <i name="hartreedc">   -198.71818643 </i>
    <i name="XCdc">     54.83007555 </i>
    <i name="pawpsdc">   1700.06963035 </i>
    <i name="pawaedc">  -1702.81786420 </i>
    <i name="eentropy">     -0.00000000 </i>
    <i name="bandstr">    -76.39248731 </i>
    <i name="atom">    588.59557325 </i>
    <i name="e_fr_energy">    -36.83307605 </i>
    <i name="e_wo_entrp">    -36.83307605 </i>
    <i name="e_0_energy">    -36.83307605 </i>
   </energy>
  </scstep>
  <scstep>
   <time name="diag">    0.03    0.03</time>
   <time name="diis">    0.09    0.09</time>
   <time name="orth">    0.00    0.00</time>
   <time name="total">    0.19    0.19</time>
   <energy>
    <i name="e_fr_energy">    -36.82439127 </i>
    <i name="e_wo_entrp">    -36.82439127 </i>
    <i name="e_0_energy">    -36.82439127 </i>
   </energy>
  </scstep>
  <scstep>
   <time name="diag">    0.03    0.03</time>
   <time name="diis">    0.09    0.09</time>
   <time name="orth">    0.00    0.00</time>
   <time name="total">    0.19    0.19</time>
   <energy>
    <i name="e_fr_energy">    -36.81805071 </i>
    <i name="e_wo_entrp">    -36.81805071 </i>
    <i name="e_0_energy">    -36.81805071 </i>
   </energy>
  </scstep>
  <scstep>
   <time name="diag">    0.03    0.03</time>
   <time name="diis">    0.09    0.09</time>
   <time name="orth">    0.00    0.00</time>
   <time name="total">    0.19    0.19</time>
   <energy>
    <i name="e_fr_energy">    -36.81820640 </i>
    <i name="e_wo_entrp">    -36.81820640 </i>
    <i name="e_0_energy">    -36.81820640 </i>
   </energy>
  </scstep>
  <scstep>
   <time name="diag">    0.03    0.03</time>
   <time name="diis">    0.09    0.09</time>
   <time name="orth">    0.00    0.00</time>
   <time name="total">    0.19    0.19</time>
   <energy>
    <i name="e_fr_energy">    -36.81822966 </i>
    <i name="e_wo_entrp">    -36.81822966 </i>
    <i name="e_0_energy">    -36.81822966 </i>
   </energy>
  </scstep>
  <scstep>
   <time name="diag">    0.03    0.03</time>
   <time name="diis">    0.09    0.09</time>
   <time name="orth">    0.00    0.00</time>
   <time name="total">    0.17    0.17</time>
   <energy>
    <i name="alphaZ">     34.96906495 </i>
    <i name="ewald">   -437.36888220 </i>
    <i name="hartreedc">   -197.23311340 </i>
    <i name="XCdc">     54.77997567 </i>
    <i name="pawpsdc">   1591.64382397 </i>
    <i name="pawaedc">  -1594.35064296 </i>
    <i name="eentropy">     -0.00000000 </i>
    <i name="bandstr">    -77.85403448 </i>
    <i name="atom">    588.59557325 </i>
    <i name="e_fr_energy">    -36.81823521 </i>
    <i name="e_wo_entrp">    -36.81823521 </i>
    <i name="e_0_energy">    -36.81823521 </i>
   </energy>
  </scstep>
  <structure>
   <crystal>
    <varray name="basis" >
     <v>       4.33617538       0.00000000       0.00145233 </v>
     <v>       0.00000000       2.48156329       0.00000000 </v>
     <v>      -1.40430205       0.00000000       3.49249256 </v>
    </varray>
    <i name="volume">     37.58600517 </i>
    <varray name="rec_basis" >
     <v>       0.23058692       0.00000000       0.09271707 </v>
     <v>       0.00000000       0.40297179       0.00000000 </v>
     <v>      -0.00009589       0.00000000       0.28628990 </v>
    </varray>
   </crystal>
   <varray name="positions" >
    <v>       0.16905273       1.00000000       0.99993741 </v>
    <v>       0.83094727       0.00000000       0.00006259 </v>
    <v>       0.66905273       0.50000000       0.99993741 </v>
    <v>       0.33094727       0.50000000       0.00006259 </v>
   </varray>
  </structure>
  <varray name="forces" >
   <v>      -0.96313609       0.00000000      -0.00111172 </v>
   <v>       0.96313609       0.00000000       0.00111172 </v>
   <v>      -0.96313609       0.00000000      -0.00111172 </v>
   <v>       0.96313609      -0.00000000       0.00111172 </v>
  </varray>
  <varray name="stress" >
   <v>    -163.01678436       0.00000000       0.79625150 </v>
   <v>       0.00000000     -76.31471940       0.00000000 </v>
   <v>       0.79625179       0.00000000      -9.75504216 </v>
  </varray>
  <energy>
   <i name="e_fr_energy">    -37.41033777 </i>
   <i name="e_wo_entrp">    -37.41033777 </i>
   <i name="e_0_energy">    -37.41033777 </i>
  </energy>
  <time name="totalsc">    1.43    1.43</time>
 </calculation>
 <calculation>
  <scstep>
   <time name="dav">    0.16    0.17</time>
   <time name="total">    0.22    0.22</time>
   <energy>
    <i name="alphaZ">     35.66188904 </i>
    <i name="ewald">   -434.01872611 </i>
    <i name="hartreedc">   -201.34319913 </i>
    <i name="XCdc">     55.12413563 </i>
    <i name="pawpsdc">   1594.03258424 </i>
    <i name="pawaedc">  -1596.73958328 </i>
    <i name="eentropy">     -0.00000000 </i>
    <i name="bandstr">    -78.18765775 </i>
    <i name="atom">    588.59557325 </i>
    <i name="e_fr_energy">    -36.87498412 </i>
    <i name="e_wo_entrp">    -36.87498412 </i>
    <i name="e_0_energy">    -36.87498412 </i>
   </energy>
  </scstep>
  <scstep>
   <time name="diag">    0.03    0.03</time>
   <time name="diis">    0.09    0.09</time>
   <time name="orth">    0.00    0.00</time>
   <time name="total">    0.19    0.19</time>
   <energy>
    <i name="e_fr_energy">    -36.86938337 </i>
    <i name="e_wo_entrp">    -36.86938337 </i>
    <i name="e_0_energy">    -36.86938337 </i>
   </energy>
  </scstep>
  <scstep>
   <time name="diag">    0.03    0.03</time>
   <time name="diis">    0.09    0.09</time>
   <time name="orth">    0.00    0.00</time>
   <time name="total">    0.19    0.19</time>
   <energy>
    <i name="e_fr_energy">    -36.86575831 </i>
    <i name="e_wo_entrp">    -36.86575831 </i>
    <i name="e_0_energy">    -36.86575831 </i>
   </energy>
  </scstep>
  <scstep>
   <time name="diag">    0.03    0.03</time>
   <time name="diis">    0.09    0.09</time>
   <time name="orth">    0.00    0.00</time>
   <time name="total">    0.19    0.19</time>
   <energy>
    <i name="e_fr_energy">    -36.86583534 </i>
    <i name="e_wo_entrp">    -36.86583534 </i>
    <i name="e_0_energy">    -36.86583534 </i>
   </energy>
  </scstep>
  <scstep>
   <time name="diag">    0.03    0.03</time>
   <time name="diis">    0.09    0.09</time>
   <time name="orth">    0.00    0.00</time>
   <time name="total">    0.19    0.19</time>
   <energy>
    <i name="e_fr_energy">    -36.86584657 </i>
    <i name="e_wo_entrp">    -36.86584657 </i>
    <i name="e_0_energy">    -36.86584657 </i>
   </energy>
  </scstep>
  <scstep>
   <time name="diag">    0.03    0.03</time>
   <time name="diis">    0.08    0.08</time>
   <time name="orth">    0.00    0.00</time>
   <time name="total">    0.16    0.16</time>
   <energy>
    <i name="alphaZ">     35.66188904 </i>
    <i name="ewald">   -434.01872611 </i>
    <i name="hartreedc">   -202.49802794 </i>
    <i name="XCdc">     55.16174116 </i>
    <i name="pawpsdc">   1674.07401196 </i>
    <i name="pawaedc">  -1676.81206491 </i>
    <i name="eentropy">     -0.00000000 </i>
    <i name="bandstr">    -77.03024619 </i>
    <i name="atom">    588.59557325 </i>
    <i name="e_fr_energy">    -36.86584973 </i>
    <i name="e_wo_entrp">    -36.86584973 </i>
    <i name="e_0_energy">    -36.86584973 </i>
   </energy>
  </scstep>
  <structure>
   <crystal>
    <varray name="basis" >
     <v>       4.27518378       0.00000000       0.00036592 </v>
     <v>       0.00000000       2.46286338       0.00000000 </v>
     <v>      -1.38542709       0.00000000       3.50022548 </v>
    </varray>
    <i name="volume">     36.85580017 </i>
    <varray name="rec_basis" >
     <v>       0.23390015       0.00000000       0.09258021 </v>
     <v>       0.00000000       0.40603145       0.00000000 </v>
     <v>      -0.00002445       0.00000000       0.28568620 </v>
    </varray>
   </crystal>
   <varray name="positions" >
    <v>       0.16728520       0.00000000       0.99991530 </v>
    <v>       0.83271480       0.00000000       0.00008470 </v>
    <v>       0.66728520       0.50000000       0.99991530 </v>
    <v>       0.33271480       0.50000000       0.00008470 </v>
   </varray>
  </structure>
  <varray name="forces" >
   <v>      -0.13212159       0.00000000       0.00161699 </v>
   <v>       0.13212159      -0.00000000      -0.00161699 </v>
   <v>      -0.13212159      -0.00000000       0.00161699 </v>
   <v>       0.13212159       0.00000000      -0.00161699 </v>
  </varray>
  <varray name="stress" >
   <v>       4.65674314       0.00000000       1.14901416 </v>
   <v>       0.00000000       6.95956685       0.00000000 </v>
   <v>       1.14901416       0.00000000     -11.35047997 </v>
  </varray>
  <energy>
   <i name="e_fr_energy">    -37.46013171 </i>
   <i name="e_wo_entrp">    -37.46013171 </i>
   <i name="e_0_energy">    -37.46013171 </i>
  </energy>
  <time name="totalsc">    1.42    1.42</time>
 </calculation>
 <calculation>
  <scstep>
   <time name="dav">    0.16    0.17</time>
   <time name="total">    0.22    0.22</time>
   <energy>
    <i name="alphaZ">     35.66649241 </i>
    <i name="ewald">   -433.99543405 </i>
    <i name="hartreedc">   -202.52186809 </i>
    <i name="XCdc">     55.16381490 </i>
    <i name="pawpsdc">   1671.77180738 </i>
    <i name="pawaedc">  -1674.50978003 </i>
    <i name="eentropy">     -0.00000000 </i>
    <i name="bandstr">    -77.03645584 </i>
    <i name="atom">    588.59557325 </i>
    <i name="e_fr_energy">    -36.86585006 </i>
    <i name="e_wo_entrp">    -36.86585006 </i>
    <i name="e_0_energy">    -36.86585006 </i>
   </energy>
  </scstep>
  <scstep>
   <time name="diag">    0.03    0.03</time>
   <time name="diis">    0.06    0.06</time>
   <time name="orth">    0.00    0.00</time>
   <time name="total">    0.14    0.14</time>
   <energy>
    <i name="alphaZ">     35.66649241 </i>
    <i name="ewald">   -433.99543405 </i>
    <i name="hartreedc">   -202.52611274 </i>
    <i name="XCdc">     55.16393746 </i>
    <i name="pawpsdc">   1671.96306373 </i>
    <i name="pawaedc">  -1674.70111338 </i>
    <i name="eentropy">     -0.00000000 </i>
    <i name="bandstr">    -77.03225667 </i>
    <i name="atom">    588.59557325 </i>
    <i name="e_fr_energy">    -36.86584999 </i>
    <i name="e_wo_entrp">    -36.86584999 </i>
    <i name="e_0_energy">    -36.86584999 </i>
   </energy>
  </scstep>
  <structure>
   <crystal>
    <varray name="basis" >
     <v>       4.27478520       0.00000000       0.00035882 </v>
     <v>       0.00000000       2.46274117       0.00000000 </v>
     <v>      -1.38530374       0.00000000       3.50027602 </v>
    </varray>
    <i name="volume">     36.85104329 </i>
    <varray name="rec_basis" >
     <v>       0.23392211       0.00000000       0.09257932 </v>
     <v>       0.00000000       0.40605160       0.00000000 </v>
     <v>      -0.00002398       0.00000000       0.28568226 </v>
    </varray>
   </crystal>
   <varray name="positions" >
    <v>       0.16727349       0.00000000       0.99991515 </v>
    <v>       0.83272651       0.00000000       0.00008485 </v>
    <v>       0.66727349       0.50000000       0.99991515 </v>
    <v>       0.33272651       0.50000000       0.00008485 </v>
   </varray>
  </structure>
  <varray name="forces" >
   <v>      -0.12725059      -0.00000000       0.00160989 </v>
   <v>       0.12725059       0.00000000      -0.00160989 </v>
   <v>      -0.12725059       0.00000000       0.00160989 </v>
   <v>       0.12725059      -0.00000000      -0.00160989 </v>
  </varray>
  <varray name="stress" >
   <v>       5.69487769       0.00000000       1.13936174 </v>
   <v>       0.00000000       7.66385124       0.00000000 </v>
   <v>       1.13936157       0.00000000     -11.16617985 </v>
  </varray>
  <energy>
   <i name="e_fr_energy">    -37.46013590 </i>
   <i name="e_wo_entrp">    -37.46013590 </i>
   <i name="e_0_energy">    -37.46013590 </i>
  </energy>
  <time name="totalsc">    0.65    0.65</time>
 </calculation>
 <calculation>
  <scstep>
   <time name="dav">    0.16    0.16</time>
   <time name="total">    0.22    0.22</time>
   <energy>
    <i name="alphaZ">     35.57105366 </i>
    <i name="ewald">   -436.40534141 </i>
    <i name="hartreedc">   -201.08273611 </i>
    <i name="XCdc">     55.11470434 </i>
    <i name="pawpsdc">   1672.23533325 </i>
    <i name="pawaedc">  -1674.97349497 </i>
    <i name="eentropy">     -0.00000000 </i>
    <i name="bandstr">    -75.91885906 </i>
    <i name="atom">    588.59557325 </i>
    <i name="e_fr_energy">    -36.86376707 </i>
    <i name="e_wo_entrp">    -36.86376707 </i>
    <i name="e_0_energy">    -36.86376707 </i>
   </energy>
  </scstep>
  <scstep>
   <time name="diag">    0.03    0.03</time>
   <time name="diis">    0.09    0.09</time>
   <time name="orth">    0.00    0.00</time>
   <time name="total">    0.19    0.19</time>
   <energy>
    <i name="e_fr_energy">    -36.86253060 </i>
    <i name="e_wo_entrp">    -36.86253060 </i>
    <i name="e_0_energy">    -36.86253060 </i>
   </energy>
  </scstep>
  <scstep>
   <time name="diag">    0.03    0.03</time>
   <time name="diis">    0.09    0.09</time>
   <time name="orth">    0.00    0.00</time>
   <time name="total">    0.19    0.19</time>
   <energy>
    <i name="e_fr_energy">    -36.86177842 </i>
    <i name="e_wo_entrp">    -36.86177842 </i>
    <i name="e_0_energy">    -36.86177842 </i>
   </energy>
  </scstep>
  <scstep>
   <time name="diag">    0.03    0.03</time>
   <time name="diis">    0.09    0.09</time>
   <time name="orth">    0.00    0.00</time>
   <time name="total">    0.19    0.19</time>
   <energy>
    <i name="e_fr_energy">    -36.86180108 </i>
    <i name="e_wo_entrp">    -36.86180108 </i>
    <i name="e_0_energy">    -36.86180108 </i>
   </energy>
  </scstep>
  <scstep>
   <time name="diag">    0.03    0.03</time>
   <time name="diis">    0.08    0.08</time>
   <time name="orth">    0.00    0.00</time>
   <time name="total">    0.17    0.17</time>
   <energy>
    <i name="alphaZ">     35.57105366 </i>
    <i name="ewald">   -436.40534141 </i>
    <i name="hartreedc">   -200.05848989 </i>
    <i name="XCdc">     55.06640965 </i>
    <i name="pawpsdc">   1650.15419040 </i>
    <i name="pawaedc">  -1652.88463419 </i>
    <i name="eentropy">     -0.00000000 </i>
    <i name="bandstr">    -76.90056624 </i>
    <i name="atom">    588.59557325 </i>
    <i name="e_fr_energy">    -36.86180478 </i>
    <i name="e_wo_entrp">    -36.86180478 </i>
    <i name="e_0_energy">    -36.86180478 </i>
   </energy>
  </scstep>
  <structure>
   <crystal>
    <varray name="basis" >
     <v>       4.28723856       0.00000000       0.00162508 </v>
     <v>       0.00000000       2.46924333       0.00000000 </v>
     <v>      -1.38830171       0.00000000       3.48984740 </v>
    </varray>
    <i name="volume">     36.94991632 </i>
    <varray name="rec_basis" >
     <v>       0.23321521       0.00000000       0.09277571 </v>
     <v>       0.00000000       0.40498236       0.00000000 </v>
     <v>      -0.00010860       0.00000000       0.28650228 </v>
    </varray>
   </crystal>
   <varray name="positions" >
    <v>       0.16625634       1.00000000       0.99993660 </v>
    <v>       0.83374366       0.00000000       0.00006340 </v>
    <v>       0.66625634       0.50000000       0.99993660 </v>
    <v>       0.33374366       0.50000000       0.00006340 </v>
   </varray>
  </structure>
  <varray name="forces" >
   <v>       0.36183543       0.00000000      -0.00222523 </v>
   <v>      -0.36183543      -0.00000000       0.00222523 </v>
   <v>       0.36183543      -0.00000000      -0.00222523 </v>
   <v>      -0.36183543       0.00000000       0.00222523 </v>
  </varray>
  <varray name="stress" >
   <v>     -19.84253291       0.00000000       1.27665383 </v>
   <v>       0.00000000     -36.21618144       0.00000000 </v>
   <v>       1.27665380       0.00000000     -11.61371344 </v>
  </varray>
  <energy>
   <i name="e_fr_energy">    -37.45749217 </i>
   <i name="e_wo_entrp">    -37.45749217 </i>
   <i name="e_0_energy">    -37.45749217 </i>
  </energy>
  <time name="totalsc">    1.23    1.23</time>
 </calculation>
 <calculation>
  <scstep>
   <time name="dav">    0.16    0.16</time>
   <time name="total">    0.21    0.22</time>
   <energy>
    <i name="alphaZ">     35.63810679 </i>
    <i name="ewald">   -434.71538405 </i>
    <i name="hartreedc">   -201.05452949 </i>
    <i name="XCdc">     55.09989551 </i>
    <i name="pawpsdc">   1650.67864602 </i>
    <i name="pawaedc">  -1653.40827377 </i>
    <i name="eentropy">     -0.00000000 </i>
    <i name="bandstr">    -77.70100010 </i>
    <i name="atom">    588.59557325 </i>
    <i name="e_fr_energy">    -36.86696584 </i>
    <i name="e_wo_entrp">    -36.86696584 </i>
    <i name="e_0_energy">    -36.86696584 </i>
   </energy>
  </scstep>
  <scstep>
   <time name="diag">    0.03    0.03</time>
   <time name="diis">    0.09    0.09</time>
   <time name="orth">    0.00    0.00</time>
   <time name="total">    0.19    0.19</time>
   <energy>
    <i name="e_fr_energy">    -36.86634547 </i>
    <i name="e_wo_entrp">    -36.86634547 </i>
    <i name="e_0_energy">    -36.86634547 </i>
   </energy>
  </scstep>
  <scstep>
   <time name="diag">    0.03    0.03</time>
   <time name="diis">    0.09    0.09</time>
   <time name="orth">    0.00    0.00</time>
   <time name="total">    0.19    0.19</time>
   <energy>
    <i name="e_fr_energy">    -36.86596915 </i>
    <i name="e_wo_entrp">    -36.86596915 </i>
    <i name="e_0_energy">    -36.86596915 </i>
   </energy>
  </scstep>
  <scstep>
   <time name="diag">    0.03    0.03</time>
   <time name="diis">    0.09    0.09</time>
   <time name="orth">    0.00    0.00</time>
   <time name="total">    0.19    0.19</time>
   <energy>
    <i name="e_fr_energy">    -36.86597930 </i>
    <i name="e_wo_entrp">    -36.86597930 </i>
    <i name="e_0_energy">    -36.86597930 </i>
   </energy>
  </scstep>
  <scstep>
   <time name="diag">    0.03    0.03</time>
   <time name="diis">    0.07    0.07</time>
   <time name="orth">    0.00    0.00</time>
   <time name="total">    0.15    0.15</time>
   <energy>
    <i name="alphaZ">     35.63810679 </i>
    <i name="ewald">   -434.71538405 </i>
    <i name="hartreedc">   -201.78286533 </i>
    <i name="XCdc">     55.13405960 </i>
    <i name="pawpsdc">   1666.40029497 </i>
    <i name="pawaedc">  -1669.13541378 </i>
    <i name="eentropy">     -0.00000000 </i>
    <i name="bandstr">    -77.00035253 </i>
    <i name="atom">    588.59557325 </i>
    <i name="e_fr_energy">    -36.86598109 </i>
    <i name="e_wo_entrp">    -36.86598109 </i>
    <i name="e_0_energy">    -36.86598109 </i>
   </energy>
  </scstep>
  <structure>
   <crystal>
    <varray name="basis" >
     <v>       4.27847409       0.00000000       0.00073391 </v>
     <v>       0.00000000       2.46466722       0.00000000 </v>
     <v>      -1.38619179       0.00000000       3.49718689 </v>
    </varray>
    <i name="volume">     36.88039502 </i>
    <varray name="rec_basis" >
     <v>       0.23371230       0.00000000       0.09263733 </v>
     <v>       0.00000000       0.40573429       0.00000000 </v>
     <v>      -0.00004905       0.00000000       0.28592467 </v>
    </varray>
   </crystal>
   <varray name="positions" >
    <v>       0.16697000       0.00000000       0.99992120 </v>
    <v>       0.83303000       0.00000000       0.00007880 </v>
    <v>       0.66697000       0.50000000       0.99992120 </v>
    <v>       0.33303000       0.50000000       0.00007880 </v>
   </varray>
  </structure>
  <varray name="forces" >
   <v>       0.01845646      -0.00000000       0.00055463 </v>
   <v>      -0.01845646       0.00000000      -0.00055463 </v>
   <v>       0.01845646       0.00000000       0.00055463 </v>
   <v>      -0.01845646      -0.00000000      -0.00055463 </v>
  </varray>
  <varray name="stress" >
   <v>      -1.36845450       0.00000000       1.20156565 </v>
   <v>       0.00000000      -5.42860382       0.00000000 </v>
   <v>       1.20156547       0.00000000     -10.98547696 </v>
  </varray>
  <energy>
   <i name="e_fr_energy">    -37.46070274 </i>
   <i name="e_wo_entrp">    -37.46070274 </i>
   <i name="e_0_energy">    -37.46070274 </i>
  </energy>
  <time name="totalsc">    1.20    1.21</time>
 </calculation>
 <calculation>
  <scstep>
   <time name="dav">    0.15    0.15</time>
   <time name="total">    0.21    0.21</time>
   <energy>
    <i name="alphaZ">     35.74817065 </i>
    <i name="ewald">   -436.46714592 </i>
    <i name="hartreedc">   -201.41128600 </i>
    <i name="XCdc">     55.18773815 </i>
    <i name="pawpsdc">   1666.04099841 </i>
    <i name="pawaedc">  -1668.77675413 </i>
    <i name="eentropy">     -0.00000000 </i>
    <i name="bandstr">    -75.78310813 </i>
    <i name="atom">    588.59557325 </i>
    <i name="e_fr_energy">    -36.86581372 </i>
    <i name="e_wo_entrp">    -36.86581372 </i>
    <i name="e_0_energy">    -36.86581372 </i>
   </energy>
  </scstep>
  <scstep>
   <time name="diag">    0.03    0.03</time>
   <time name="diis">    0.09    0.09</time>
   <time name="orth">    0.00    0.00</time>
   <time name="total">    0.19    0.19</time>
   <energy>
    <i name="e_fr_energy">    -36.86500019 </i>
    <i name="e_wo_entrp">    -36.86500019 </i>
    <i name="e_0_energy">    -36.86500019 </i>
   </energy>
  </scstep>
  <scstep>
   <time name="diag">    0.03    0.03</time>
   <time name="diis">    0.09    0.09</time>
   <time name="orth">    0.00    0.00</time>
   <time name="total">    0.19    0.19</time>
   <energy>
    <i name="e_fr_energy">    -36.86467398 </i>
    <i name="e_wo_entrp">    -36.86467398 </i>
    <i name="e_0_energy">    -36.86467398 </i>
   </energy>
  </scstep>
  <scstep>
   <time name="diag">    0.03    0.03</time>
   <time name="diis">    0.09    0.09</time>
   <time name="orth">    0.00    0.00</time>
   <time name="total">    0.17    0.17</time>
   <energy>
    <i name="alphaZ">     35.74817065 </i>
    <i name="ewald">   -436.46714592 </i>
    <i name="hartreedc">   -200.54337756 </i>
    <i name="XCdc">     55.14114798 </i>
    <i name="pawpsdc">   1667.54044191 </i>
    <i name="pawaedc">  -1670.27447823 </i>
    <i name="eentropy">     -0.00000000 </i>
    <i name="bandstr">    -76.60501475 </i>
    <i name="atom">    588.59557325 </i>
    <i name="e_fr_energy">    -36.86468267 </i>
    <i name="e_wo_entrp">    -36.86468267 </i>
    <i name="e_0_energy">    -36.86468267 </i>
   </energy>
  </scstep>
  <structure>
   <crystal>
    <varray name="basis" >
     <v>       4.27971347       0.00000000       0.00202036 </v>
     <v>       0.00000000       2.46322248       0.00000000 </v>
     <v>      -1.38554007       0.00000000       3.48703718 </v>
    </varray>
    <i name="volume">     36.76684519 </i>
    <varray name="rec_basis" >
     <v>       0.23361668       0.00000000       0.09282530 </v>
     <v>       0.00000000       0.40597226       0.00000000 </v>
     <v>      -0.00013536       0.00000000       0.28672263 </v>
    </varray>
   </crystal>
   <varray name="positions" >
    <v>       0.16692593       1.00000000       0.99993095 </v>
    <v>       0.83307407       0.00000000       0.00006905 </v>
    <v>       0.66692593       0.50000000       0.99993095 </v>
    <v>       0.33307407       0.50000000       0.00006905 </v>
   </varray>
  </structure>
  <varray name="forces" >
   <v>       0.02861661       0.00000000      -0.00089688 </v>
   <v>      -0.02861661      -0.00000000       0.00089688 </v>
   <v>       0.02861661       0.00000000      -0.00089688 </v>
   <v>      -0.02861661      -0.00000000       0.00089688 </v>
  </varray>
  <varray name="stress" >
   <v>      -3.21344079       0.00000000       1.17104612 </v>
   <v>       0.00000000       0.21670323       0.00000000 </v>
   <v>       1.17104594       0.00000000     -11.52181323 </v>
  </varray>
  <energy>
   <i name="e_fr_energy">    -37.46143221 </i>
   <i name="e_wo_entrp">    -37.46143221 </i>
   <i name="e_0_energy">    -37.46143221 </i>
  </energy>
  <time name="totalsc">    1.03    1.03</time>
 </calculation>
 <calculation>
  <scstep>
   <time name="dav">    0.14    0.15</time>
   <time name="total">    0.20    0.20</time>
   <energy>
    <i name="alphaZ">     36.08223065 </i>
    <i name="ewald">   -441.73042207 </i>
    <i name="hartreedc">   -199.41691413 </i>
    <i name="XCdc">     55.30223979 </i>
    <i name="pawpsdc">   1666.00948968 </i>
    <i name="pawaedc">  -1668.74620801 </i>
    <i name="eentropy">     -0.00000000 </i>
    <i name="bandstr">    -72.96616570 </i>
    <i name="atom">    588.59557325 </i>
    <i name="e_fr_energy">    -36.87017654 </i>
    <i name="e_wo_entrp">    -36.87017654 </i>
    <i name="e_0_energy">    -36.87017654 </i>
   </energy>
  </scstep>
  <scstep>
   <time name="diag">    0.03    0.03</time>
   <time name="diis">    0.09    0.09</time>
   <time name="orth">    0.00    0.00</time>
   <time name="total">    0.19    0.19</time>
   <energy>
    <i name="e_fr_energy">    -36.86280763 </i>
    <i name="e_wo_entrp">    -36.86280763 </i>
    <i name="e_0_energy">    -36.86280763 </i>
   </energy>
  </scstep>
  <scstep>
   <time name="diag">    0.04    0.04</time>
   <time name="diis">    0.09    0.09</time>
   <time name="orth">    0.00    0.00</time>
   <time name="total">    0.19    0.19</time>
   <energy>
    <i name="e_fr_energy">    -36.85986840 </i>
    <i name="e_wo_entrp">    -36.85986840 </i>
    <i name="e_0_energy">    -36.85986840 </i>
   </energy>
  </scstep>
  <scstep>
   <time name="diag">    0.04    0.04</time>
   <time name="diis">    0.09    0.09</time>
   <time name="orth">    0.00    0.00</time>
   <time name="total">    0.19    0.19</time>
   <energy>
    <i name="e_fr_energy">    -36.85994564 </i>
    <i name="e_wo_entrp">    -36.85994564 </i>
    <i name="e_0_energy">    -36.85994564 </i>
   </energy>
  </scstep>
  <scstep>
   <time name="diag">    0.03    0.03</time>
   <time name="diis">    0.09    0.09</time>
   <time name="orth">    0.00    0.00</time>
   <time name="total">    0.17    0.18</time>
   <energy>
    <i name="alphaZ">     36.08223065 </i>
    <i name="ewald">   -441.73042207 </i>
    <i name="hartreedc">   -196.86608772 </i>
    <i name="XCdc">     55.16633928 </i>
    <i name="pawpsdc">   1667.34317456 </i>
    <i name="pawaedc">  -1670.08241827 </i>
    <i name="eentropy">     -0.00000000 </i>
    <i name="bandstr">    -75.36834300 </i>
    <i name="atom">    588.59557325 </i>
    <i name="e_fr_energy">    -36.85995331 </i>
    <i name="e_wo_entrp">    -36.85995331 </i>
    <i name="e_0_energy">    -36.85995331 </i>
   </energy>
  </scstep>
  <structure>
   <crystal>
    <varray name="basis" >
     <v>       4.28343162       0.00000000       0.00587971 </v>
     <v>       0.00000000       2.45888827       0.00000000 </v>
     <v>      -1.38358490       0.00000000       3.45658803 </v>
    </varray>
    <i name="volume">     36.42644682 </i>
    <varray name="rec_basis" >
     <v>       0.23332948       0.00000000       0.09339590 </v>
     <v>       0.00000000       0.40668786       0.00000000 </v>
     <v>      -0.00039690       0.00000000       0.28914376 </v>
    </varray>
   </crystal>
   <varray name="positions" >
    <v>       0.16679380       0.00000000       0.99996034 </v>
    <v>       0.83320620       0.00000000       0.00003966 </v>
    <v>       0.66679380       0.50000000       0.99996034 </v>
    <v>       0.33320620       0.50000000       0.00003966 </v>
   </varray>
  </structure>
  <varray name="forces" >
   <v>       0.05520456      -0.00000000      -0.00520062 </v>
   <v>      -0.05520456       0.00000000       0.00520062 </v>
   <v>       0.05520456      -0.00000000      -0.00520062 </v>
   <v>      -0.05520456      -0.00000000       0.00520062 </v>
  </varray>
  <varray name="stress" >
   <v>      -9.67318759       0.00000000       1.17154836 </v>
   <v>       0.00000000      15.85694795       0.00000000 </v>
   <v>       1.17154894       0.00000000     -10.73987094 </v>
  </varray>
  <energy>
   <i name="e_fr_energy">    -37.46284908 </i>
   <i name="e_wo_entrp">    -37.46284908 </i>
   <i name="e_0_energy">    -37.46284908 </i>
  </energy>
  <time name="totalsc">    1.22    1.23</time>
 </calculation>
 <calculation>
  <scstep>
   <time name="dav">    0.14    0.15</time>
   <time name="total">    0.20    0.20</time>
   <energy>
    <i name="alphaZ">     36.76826461 </i>
    <i name="ewald">   -452.29316515 </i>
    <i name="hartreedc">   -194.58494258 </i>
    <i name="XCdc">     55.48787482 </i>
    <i name="pawpsdc">   1668.61882128 </i>
    <i name="pawaedc">  -1671.35637064 </i>
    <i name="eentropy">     -0.00000000 </i>
    <i name="bandstr">    -68.12384158 </i>
    <i name="atom">    588.59557325 </i>
    <i name="e_fr_energy">    -36.88778599 </i>
    <i name="e_wo_entrp">    -36.88778599 </i>
    <i name="e_0_energy">    -36.88778599 </i>
   </energy>
  </scstep>
  <scstep>
   <time name="diag">    0.03    0.03</time>
   <time name="diis">    0.09    0.09</time>
   <time name="orth">    0.00    0.00</time>
   <time name="total">    0.19    0.19</time>
   <energy>
    <i name="e_fr_energy">    -36.85806208 </i>
    <i name="e_wo_entrp">    -36.85806208 </i>
    <i name="e_0_energy">    -36.85806208 </i>
   </energy>
  </scstep>
  <scstep>
   <time name="diag">    0.03    0.03</time>
   <time name="diis">    0.09    0.09</time>
   <time name="orth">    0.00    0.00</time>
   <time name="total">    0.19    0.19</time>
   <energy>
    <i name="e_fr_energy">    -36.84626494 </i>
    <i name="e_wo_entrp">    -36.84626494 </i>
    <i name="e_0_energy">    -36.84626494 </i>
   </energy>
  </scstep>
  <scstep>
   <time name="diag">    0.03    0.03</time>
   <time name="diis">    0.09    0.09</time>
   <time name="orth">    0.00    0.00</time>
   <time name="total">    0.19    0.19</time>
   <energy>
    <i name="e_fr_energy">    -36.84656513 </i>
    <i name="e_wo_entrp">    -36.84656513 </i>
    <i name="e_0_energy">    -36.84656513 </i>
   </energy>
  </scstep>
  <scstep>
   <time name="diag">    0.03    0.03</time>
   <time name="diis">    0.09    0.09</time>
   <time name="orth">    0.00    0.00</time>
   <time name="total">    0.19    0.19</time>
   <energy>
    <i name="e_fr_energy">    -36.84659389 </i>
    <i name="e_wo_entrp">    -36.84659389 </i>
    <i name="e_0_energy">    -36.84659389 </i>
   </energy>
  </scstep>
  <scstep>
   <time name="diag">    0.03    0.03</time>
   <time name="diis">    0.09    0.09</time>
   <time name="orth">    0.00    0.00</time>
   <time name="total">    0.18    0.18</time>
   <energy>
    <i name="e_fr_energy">    -36.84658929 </i>
    <i name="e_wo_entrp">    -36.84658929 </i>
    <i name="e_0_energy">    -36.84658929 </i>
   </energy>
  </scstep>
  <scstep>
   <time name="diag">    0.03    0.03</time>
   <time name="diis">    0.07    0.07</time>
   <time name="orth">    0.00    0.00</time>
   <time name="total">    0.15    0.15</time>
   <energy>
    <i name="alphaZ">     36.76826461 </i>
    <i name="ewald">   -452.29316515 </i>
    <i name="hartreedc">   -189.47954130 </i>
    <i name="XCdc">     55.21130911 </i>
    <i name="pawpsdc">   1674.35747119 </i>
    <i name="pawaedc">  -1677.09726674 </i>
    <i name="eentropy">     -0.00000000 </i>
    <i name="bandstr">    -72.90923635 </i>
    <i name="atom">    588.59557325 </i>
    <i name="e_fr_energy">    -36.84659138 </i>
    <i name="e_wo_entrp">    -36.84659138 </i>
    <i name="e_0_energy">    -36.84659138 </i>
   </energy>
  </scstep>
  <structure>
   <crystal>
    <varray name="basis" >
     <v>       4.29086792       0.00000000       0.01359841 </v>
     <v>       0.00000000       2.45021985       0.00000000 </v>
     <v>      -1.37967456       0.00000000       3.39568975 </v>
    </varray>
    <i name="volume">     35.74679061 </i>
    <varray name="rec_basis" >
     <v>       0.23275338       0.00000000       0.09456810 </v>
     <v>       0.00000000       0.40812664       0.00000000 </v>
     <v>      -0.00093209       0.00000000       0.29411227 </v>
    </varray>
   </crystal>
   <varray name="positions" >
    <v>       0.16653000       1.00000000       0.00001992 </v>
    <v>       0.83347000       0.00000000       0.99998008 </v>
    <v>       0.66653000       0.50000000       0.00001992 </v>
    <v>       0.33347000       0.50000000       0.99998008 </v>
   </varray>
  </structure>
  <varray name="forces" >
   <v>       0.10697114      -0.00000000      -0.01391651 </v>
   <v>      -0.10697114       0.00000000       0.01391651 </v>
   <v>       0.10697114       0.00000000      -0.01391651 </v>
   <v>      -0.10697114      -0.00000000       0.01391651 </v>
  </varray>
  <varray name="stress" >
   <v>     -21.31281121       0.00000000       1.22470198 </v>
   <v>       0.00000000      50.59451675       0.00000000 </v>
   <v>       1.22470302       0.00000000      -5.61696835 </v>
  </varray>
  <energy>
   <i name="e_fr_energy">    -37.46205037 </i>
   <i name="e_wo_entrp">    -37.46205037 </i>
   <i name="e_0_energy">    -37.46205037 </i>
  </energy>
  <time name="totalsc">    1.57    1.57</time>
 </calculation>
 <calculation>
  <scstep>
   <time name="dav">    0.15    0.15</time>
   <time name="total">    0.21    0.21</time>
   <energy>
    <i name="alphaZ">     36.36599413 </i>
    <i name="ewald">   -446.13903308 </i>
    <i name="hartreedc">   -190.74372515 </i>
    <i name="XCdc">     55.02253125 </i>
    <i name="pawpsdc">   1674.91510294 </i>
    <i name="pawaedc">  -1677.65459477 </i>
    <i name="eentropy">     -0.00000000 </i>
    <i name="bandstr">    -77.23117909 </i>
    <i name="atom">    588.59557325 </i>
    <i name="e_fr_energy">    -36.86933053 </i>
    <i name="e_wo_entrp">    -36.86933053 </i>
    <i name="e_0_energy">    -36.86933053 </i>
   </energy>
  </scstep>
  <scstep>
   <time name="diag">    0.03    0.03</time>
   <time name="diis">    0.09    0.09</time>
   <time name="orth">    0.00    0.00</time>
   <time name="total">    0.19    0.19</time>
   <energy>
    <i name="e_fr_energy">    -36.85908963 </i>
    <i name="e_wo_entrp">    -36.85908963 </i>
    <i name="e_0_energy">    -36.85908963 </i>
   </energy>
  </scstep>
  <scstep>
   <time name="diag">    0.03    0.03</time>
   <time name="diis">    0.09    0.09</time>
   <time name="orth">    0.00    0.00</time>
   <time name="total">    0.19    0.19</time>
   <energy>
    <i name="e_fr_energy">    -36.85490558 </i>
    <i name="e_wo_entrp">    -36.85490558 </i>
    <i name="e_0_energy">    -36.85490558 </i>
   </energy>
  </scstep>
  <scstep>
   <time name="diag">    0.03    0.03</time>
   <time name="diis">    0.09    0.09</time>
   <time name="orth">    0.00    0.00</time>
   <time name="total">    0.19    0.19</time>
   <energy>
    <i name="e_fr_energy">    -36.85501181 </i>
    <i name="e_wo_entrp">    -36.85501181 </i>
    <i name="e_0_energy">    -36.85501181 </i>
   </energy>
  </scstep>
  <scstep>
   <time name="diag">    0.03    0.03</time>
   <time name="diis">    0.09    0.09</time>
   <time name="orth">    0.00    0.00</time>
   <time name="total">    0.18    0.18</time>
   <energy>
    <i name="e_fr_energy">    -36.85501708 </i>
    <i name="e_wo_entrp">    -36.85501708 </i>
    <i name="e_0_energy">    -36.85501708 </i>
   </energy>
  </scstep>
  <scstep>
   <time name="diag">    0.03    0.03</time>
   <time name="diis">    0.09    0.09</time>
   <time name="orth">    0.00    0.00</time>
   <time name="total">    0.19    0.19</time>
   <energy>
    <i name="e_fr_energy">    -36.85504426 </i>
    <i name="e_wo_entrp">    -36.85504426 </i>
    <i name="e_0_energy">    -36.85504426 </i>
   </energy>
  </scstep>
  <scstep>
   <time name="diag">    0.03    0.03</time>
   <time name="diis">    0.06    0.06</time>
   <time name="orth">    0.00    0.00</time>
   <time name="total">    0.16    0.16</time>
   <energy>
    <i name="e_fr_energy">    -36.85502418 </i>
    <i name="e_wo_entrp">    -36.85502418 </i>
    <i name="e_0_energy">    -36.85502418 </i>
   </energy>
  </scstep>
  <scstep>
   <time name="diag">    0.03    0.03</time>
   <time name="diis">    0.06    0.06</time>
   <time name="orth">    0.00    0.00</time>
   <time name="total">    0.14    0.14</time>
   <energy>
    <i name="alphaZ">     36.36599413 </i>
    <i name="ewald">   -446.13903308 </i>
    <i name="hartreedc">   -193.70198881 </i>
    <i name="XCdc">     55.18040427 </i>
    <i name="pawpsdc">   1673.71388794 </i>
    <i name="pawaedc">  -1676.45019122 </i>
    <i name="eentropy">     -0.00000000 </i>
    <i name="bandstr">    -74.41966661 </i>
    <i name="atom">    588.59557325 </i>
    <i name="e_fr_energy">    -36.85502011 </i>
    <i name="e_wo_entrp">    -36.85502011 </i>
    <i name="e_0_energy">    -36.85502011 </i>
   </energy>
  </scstep>
  <structure>
   <crystal>
    <varray name="basis" >
     <v>       4.28653948       0.00000000       0.00910559 </v>
     <v>       0.00000000       2.45526547       0.00000000 </v>
     <v>      -1.38195065       0.00000000       3.43113676 </v>
    </varray>
    <i name="volume">     36.14221163 </i>
    <varray name="rec_basis" >
     <v>       0.23308899       0.00000000       0.09388069 </v>
     <v>       0.00000000       0.40728793       0.00000000 </v>
     <v>      -0.00061857       0.00000000       0.29119946 </v>
    </varray>
   </crystal>
   <varray name="positions" >
    <v>       0.16668301       0.00000000       0.99998427 </v>
    <v>       0.83331699       0.00000000       0.00001573 </v>
    <v>       0.66668301       0.50000000       0.99998427 </v>
    <v>       0.33331699       0.50000000       0.00001573 </v>
   </varray>
  </structure>
  <varray name="forces" >
   <v>       0.07607395      -0.00000000      -0.00871435 </v>
   <v>      -0.07607395       0.00000000       0.00871435 </v>
   <v>       0.07607395      -0.00000000      -0.00871435 </v>
   <v>      -0.07607395       0.00000000       0.00871435 </v>
  </varray>
  <varray name="stress" >
   <v>     -13.91210861       0.00000000       1.25121280 </v>
   <v>       0.00000000      31.13419927       0.00000000 </v>
   <v>       1.25121332       0.00000000      -4.77712802 </v>
  </varray>
  <energy>
   <i name="e_fr_energy">    -37.46312366 </i>
   <i name="e_wo_entrp">    -37.46312366 </i>
   <i name="e_0_energy">    -37.46312366 </i>
  </energy>
  <time name="totalsc">    1.72    1.73</time>
 </calculation>
 <calculation>
  <scstep>
   <time name="dav">    0.15    0.15</time>
   <time name="total">    0.21    0.21</time>
   <energy>
    <i name="alphaZ">     36.25247023 </i>
    <i name="ewald">   -444.38208404 </i>
    <i name="hartreedc">   -194.10807993 </i>
    <i name="XCdc">     55.12908658 </i>
    <i name="pawpsdc">   1671.49104161 </i>
    <i name="pawaedc">  -1674.22909529 </i>
    <i name="eentropy">     -0.00000000 </i>
    <i name="bandstr">    -75.60720776 </i>
    <i name="atom">    588.59557325 </i>
    <i name="e_fr_energy">    -36.85829535 </i>
    <i name="e_wo_entrp">    -36.85829535 </i>
    <i name="e_0_energy">    -36.85829535 </i>
   </energy>
  </scstep>
  <scstep>
   <time name="diag">    0.03    0.03</time>
   <time name="diis">    0.09    0.09</time>
   <time name="orth">    0.00    0.00</time>
   <time name="total">    0.19    0.19</time>
   <energy>
    <i name="e_fr_energy">    -36.85743020 </i>
    <i name="e_wo_entrp">    -36.85743020 </i>
    <i name="e_0_energy">    -36.85743020 </i>
   </energy>
  </scstep>
  <scstep>
   <time name="diag">    0.03    0.03</time>
   <time name="diis">    0.09    0.09</time>
   <time name="orth">    0.00    0.00</time>
   <time name="total">    0.19    0.19</time>
   <energy>
    <i name="e_fr_energy">    -36.85708314 </i>
    <i name="e_wo_entrp">    -36.85708314 </i>
    <i name="e_0_energy">    -36.85708314 </i>
   </energy>
  </scstep>
  <scstep>
   <time name="diag">    0.03    0.03</time>
   <time name="diis">    0.09    0.09</time>
   <time name="orth">    0.00    0.00</time>
   <time name="total">    0.17    0.17</time>
   <energy>
    <i name="alphaZ">     36.25247023 </i>
    <i name="ewald">   -444.38208404 </i>
    <i name="hartreedc">   -194.99489830 </i>
    <i name="XCdc">     55.17720974 </i>
    <i name="pawpsdc">   1669.61344056 </i>
    <i name="pawaedc">  -1672.35370190 </i>
    <i name="eentropy">     -0.00000000 </i>
    <i name="bandstr">    -74.76510150 </i>
    <i name="atom">    588.59557325 </i>
    <i name="e_fr_energy">    -36.85709196 </i>
    <i name="e_wo_entrp">    -36.85709196 </i>
    <i name="e_0_energy">    -36.85709196 </i>
   </energy>
  </scstep>
  <structure>
   <crystal>
    <varray name="basis" >
     <v>       4.28530162       0.00000000       0.00782073 </v>
     <v>       0.00000000       2.45670843       0.00000000 </v>
     <v>      -1.38260157       0.00000000       3.44127397 </v>
    </varray>
    <i name="volume">     36.25539025 </i>
    <varray name="rec_basis" >
     <v>       0.23318482       0.00000000       0.09368673 </v>
     <v>       0.00000000       0.40704871       0.00000000 </v>
     <v>      -0.00052994       0.00000000       0.29037714 </v>
    </varray>
   </crystal>
   <varray name="positions" >
    <v>       0.16672685       0.00000000       0.99997424 </v>
    <v>       0.83327315       0.00000000       0.00002576 </v>
    <v>       0.66672685       0.50000000       0.99997424 </v>
    <v>       0.33327315       0.50000000       0.00002576 </v>
   </varray>
  </structure>
  <varray name="forces" >
   <v>       0.06729459       0.00000000      -0.00730752 </v>
   <v>      -0.06729459      -0.00000000       0.00730752 </v>
   <v>       0.06729459       0.00000000      -0.00730752 </v>
   <v>      -0.06729459       0.00000000       0.00730752 </v>
  </varray>
  <varray name="stress" >
   <v>     -12.66644591       0.00000000       1.27501236 </v>
   <v>       0.00000000      24.50411249       0.00000000 </v>
   <v>       1.27501290       0.00000000      -7.70075598 </v>
  </varray>
  <energy>
   <i name="e_fr_energy">    -37.46311364 </i>
   <i name="e_wo_entrp">    -37.46311364 </i>
   <i name="e_0_energy">    -37.46311364 </i>
  </energy>
  <time name="totalsc">    1.13    1.14</time>
 </calculation>
 <calculation>
  <scstep>
   <time name="dav">    0.15    0.15</time>
   <time name="total">    0.21    0.21</time>
   <energy>
    <i name="alphaZ">     36.28363322 </i>
    <i name="ewald">   -444.95103933 </i>
    <i name="hartreedc">   -194.84030770 </i>
    <i name="XCdc">     55.19066362 </i>
    <i name="pawpsdc">   1670.82716127 </i>
    <i name="pawaedc">  -1673.56558122 </i>
    <i name="eentropy">     -0.00000000 </i>
    <i name="bandstr">    -74.39690449 </i>
    <i name="atom">    588.59557325 </i>
    <i name="e_fr_energy">    -36.85680138 </i>
    <i name="e_wo_entrp">    -36.85680138 </i>
    <i name="e_0_energy">    -36.85680138 </i>
   </energy>
  </scstep>
  <scstep>
   <time name="diag">    0.03    0.03</time>
   <time name="diis">    0.09    0.09</time>
   <time name="orth">    0.00    0.00</time>
   <time name="total">    0.19    0.19</time>
   <energy>
    <i name="e_fr_energy">    -36.85671712 </i>
    <i name="e_wo_entrp">    -36.85671712 </i>
    <i name="e_0_energy">    -36.85671712 </i>
   </energy>
  </scstep>
  <scstep>
   <time name="diag">    0.03    0.03</time>
   <time name="diis">    0.09    0.09</time>
   <time name="orth">    0.00    0.00</time>
   <time name="total">    0.19    0.19</time>
   <energy>
    <i name="e_fr_energy">    -36.85668281 </i>
    <i name="e_wo_entrp">    -36.85668281 </i>
    <i name="e_0_energy">    -36.85668281 </i>
   </energy>
  </scstep>
  <scstep>
   <time name="diag">    0.03    0.03</time>
   <time name="diis">    0.06    0.06</time>
   <time name="orth">    0.00    0.00</time>
   <time name="total">    0.14    0.14</time>
   <energy>
    <i name="alphaZ">     36.28363322 </i>
    <i name="ewald">   -444.95103933 </i>
    <i name="hartreedc">   -194.56026998 </i>
    <i name="XCdc">     55.17545763 </i>
    <i name="pawpsdc">   1670.77942460 </i>
    <i name="pawaedc">  -1673.51654388 </i>
    <i name="eentropy">     -0.00000000 </i>
    <i name="bandstr">    -74.66291927 </i>
    <i name="atom">    588.59557325 </i>
    <i name="e_fr_energy">    -36.85668376 </i>
    <i name="e_wo_entrp">    -36.85668376 </i>
    <i name="e_0_energy">    -36.85668376 </i>
   </energy>
  </scstep>
  <structure>
   <crystal>
    <varray name="basis" >
     <v>       4.28509992       0.00000000       0.00824870 </v>
     <v>       0.00000000       2.45691439       0.00000000 </v>
     <v>      -1.38218693       0.00000000       3.43805229 </v>
    </varray>
    <i name="volume">     36.22425153 </i>
    <varray name="rec_basis" >
     <v>       0.23318633       0.00000000       0.09374700 </v>
     <v>       0.00000000       0.40701459       0.00000000 </v>
     <v>      -0.00055947       0.00000000       0.29063744 </v>
    </varray>
   </crystal>
   <varray name="positions" >
    <v>       0.16674165       0.00000000       0.99997319 </v>
    <v>       0.83325835       0.00000000       0.00002681 </v>
    <v>       0.66674165       0.50000000       0.99997319 </v>
    <v>       0.33325835       0.50000000       0.00002681 </v>
   </varray>
  </structure>
  <varray name="forces" >
   <v>       0.06181422       0.00000000      -0.00728685 </v>
   <v>      -0.06181422       0.00000000       0.00728685 </v>
   <v>       0.06181422       0.00000000      -0.00728685 </v>
   <v>      -0.06181422      -0.00000000       0.00728685 </v>
  </varray>
  <varray name="stress" >
   <v>     -11.89536542       0.00000000       1.23986674 </v>
   <v>       0.00000000      24.39247005       0.00000000 </v>
   <v>       1.23986752       0.00000000      -8.05265264 </v>
  </varray>
  <energy>
   <i name="e_fr_energy">    -37.46335634 </i>
   <i name="e_wo_entrp">    -37.46335634 </i>
   <i name="e_0_energy">    -37.46335634 </i>
  </energy>
  <time name="totalsc">    1.00    1.01</time>
 </calculation>
 <calculation>
  <scstep>
   <time name="dav">    0.14    0.14</time>
   <time name="total">    0.20    0.20</time>
   <energy>
    <i name="alphaZ">     36.37746506 </i>
    <i name="ewald">   -446.65782744 </i>
    <i name="hartreedc">   -194.13652840 </i>
    <i name="XCdc">     55.21938358 </i>
    <i name="pawpsdc">   1671.05278161 </i>
    <i name="pawaedc">  -1673.78972784 </i>
    <i name="eentropy">     -0.00000000 </i>
    <i name="bandstr">    -73.51757531 </i>
    <i name="atom">    588.59557325 </i>
    <i name="e_fr_energy">    -36.85645550 </i>
    <i name="e_wo_entrp">    -36.85645550 </i>
    <i name="e_0_energy">    -36.85645550 </i>
   </energy>
  </scstep>
  <scstep>
   <time name="diag">    0.03    0.03</time>
   <time name="diis">    0.09    0.09</time>
   <time name="orth">    0.00    0.00</time>
   <time name="total">    0.19    0.19</time>
   <energy>
    <i name="e_fr_energy">    -36.85571673 </i>
    <i name="e_wo_entrp">    -36.85571673 </i>
    <i name="e_0_energy">    -36.85571673 </i>
   </energy>
  </scstep>
  <scstep>
   <time name="diag">    0.03    0.03</time>
   <time name="diis">    0.09    0.09</time>
   <time name="orth">    0.00    0.00</time>
   <time name="total">    0.19    0.19</time>
   <energy>
    <i name="e_fr_energy">    -36.85540919 </i>
    <i name="e_wo_entrp">    -36.85540919 </i>
    <i name="e_0_energy">    -36.85540919 </i>
   </energy>
  </scstep>
  <scstep>
   <time name="diag">    0.03    0.03</time>
   <time name="diis">    0.08    0.09</time>
   <time name="orth">    0.00    0.00</time>
   <time name="total">    0.17    0.17</time>
   <energy>
    <i name="alphaZ">     36.37746506 </i>
    <i name="ewald">   -446.65782744 </i>
    <i name="hartreedc">   -193.30715270 </i>
    <i name="XCdc">     55.17487832 </i>
    <i name="pawpsdc">   1670.61718830 </i>
    <i name="pawaedc">  -1673.35270939 </i>
    <i name="eentropy">     -0.00000000 </i>
    <i name="bandstr">    -74.30283278 </i>
    <i name="atom">    588.59557325 </i>
    <i name="e_fr_energy">    -36.85541738 </i>
    <i name="e_wo_entrp">    -36.85541738 </i>
    <i name="e_0_energy">    -36.85541738 </i>
   </energy>
  </scstep>
  <structure>
   <crystal>
    <varray name="basis" >
     <v>       4.28449481       0.00000000       0.00953263 </v>
     <v>       0.00000000       2.45753228       0.00000000 </v>
     <v>      -1.38094301       0.00000000       3.42838724 </v>
    </varray>
    <i name="volume">     36.13081489 </i>
    <varray name="rec_basis" >
     <v>       0.23319076       0.00000000       0.09392847 </v>
     <v>       0.00000000       0.40691225       0.00000000 </v>
     <v>      -0.00064839       0.00000000       0.29142117 </v>
    </varray>
   </crystal>
   <varray name="positions" >
    <v>       0.16678604       0.00000000       0.99997004 </v>
    <v>       0.83321396       0.00000000       0.00002996 </v>
    <v>       0.66678604       0.50000000       0.99997004 </v>
    <v>       0.33321396       0.50000000       0.00002996 </v>
   </varray>
  </structure>
  <varray name="forces" >
   <v>       0.04349666      -0.00000000      -0.00733361 </v>
   <v>      -0.04349666       0.00000000       0.00733361 </v>
   <v>       0.04349666      -0.00000000      -0.00733361 </v>
   <v>      -0.04349666       0.00000000       0.00733361 </v>
  </varray>
  <varray name="stress" >
   <v>     -11.14067558       0.00000000       1.21091731 </v>
   <v>       0.00000000      22.58781081       0.00000000 </v>
[...]
       </set>
       <set comment="band 2">
        <r>  0.1264  0.0495  0.0000  0.0031  0.0000  0.0000  0.0000  0.0000  0.0000 </r>
        <r>  0.1264  0.0495  0.0000  0.0031  0.0000  0.0000  0.0000  0.0000  0.0000 </r>
        <r>  0.1264  0.0495  0.0000  0.0031  0.0000  0.0000  0.0000  0.0000  0.0000 </r>
        <r>  0.1264  0.0495  0.0000  0.0031  0.0000  0.0000  0.0000  0.0000  0.0000 </r>
       </set>
       <set comment="band 3">
        <r>  0.1089  0.0488  0.0000  0.0289  0.0000  0.0000  0.0000  0.0000  0.0000 </r>
        <r>  0.1089  0.0488  0.0000  0.0289  0.0000  0.0000  0.0000  0.0000  0.0000 </r>
        <r>  0.1089  0.0488  0.0000  0.0289  0.0000  0.0000  0.0000  0.0000  0.0000 </r>
        <r>  0.1089  0.0488  0.0000  0.0289  0.0000  0.0000  0.0000  0.0000  0.0000 </r>
       </set>
       <set comment="band 4">
        <r>  0.0104  0.0421  0.0000  0.1137  0.0000  0.0000  0.0000  0.0000  0.0000 </r>
        <r>  0.0104  0.0421  0.0000  0.1137  0.0000  0.0000  0.0000  0.0000  0.0000 </r>
        <r>  0.0104  0.0421  0.0000  0.1137  0.0000  0.0000  0.0000  0.0000  0.0000 </r>
        <r>  0.0104  0.0421  0.0000  0.1137  0.0000  0.0000  0.0000  0.0000  0.0000 </r>
       </set>
       <set comment="band 5">
        <r>  0.0811  0.0831  0.0000  0.0260  0.0000  0.0000  0.0000  0.0000  0.0000 </r>
        <r>  0.0811  0.0831  0.0000  0.0260  0.0000  0.0000  0.0000  0.0000  0.0000 </r>
        <r>  0.0811  0.0831  0.0000  0.0260  0.0000  0.0000  0.0000  0.0000  0.0000 </r>
        <r>  0.0811  0.0831  0.0000  0.0260  0.0000  0.0000  0.0000  0.0000  0.0000 </r>
       </set>
       <set comment="band 6">
        <r>  0.0106  0.0342  0.0000  0.1324  0.0000  0.0000  0.0000  0.0000  0.0000 </r>
        <r>  0.0106  0.0342  0.0000  0.1324  0.0000  0.0000  0.0000  0.0000  0.0000 </r>
        <r>  0.0106  0.0342  0.0000  0.1324  0.0000  0.0000  0.0000  0.0000  0.0000 </r>
        <r>  0.0106  0.0342  0.0000  0.1324  0.0000  0.0000  0.0000  0.0000  0.0000 </r>
       </set>
       <set comment="band 7">
        <r>  0.0002  0.0001  0.1063  0.0000  0.0000  0.0000  0.0000  0.0000  0.0000 </r>
        <r>  0.0002  0.0001  0.1063  0.0000  0.0000  0.0000  0.0000  0.0000  0.0000 </r>
        <r>  0.0002  0.0001  0.1063  0.0000  0.0000  0.0000  0.0000  0.0000  0.0000 </r>
        <r>  0.0002  0.0001  0.1063  0.0000  0.0000  0.0000  0.0000  0.0000  0.0000 </r>
       </set>
       <set comment="band 8">
        <r>  0.0001  0.0001  0.1166  0.0000  0.0000  0.0000  0.0000  0.0000  0.0000 </r>
        <r>  0.0001  0.0001  0.1166  0.0000  0.0000  0.0000  0.0000  0.0000  0.0000 </r>
        <r>  0.0001  0.0001  0.1166  0.0000  0.0000  0.0000  0.0000  0.0000  0.0000 </r>
        <r>  0.0001  0.0001  0.1166  0.0000  0.0000  0.0000  0.0000  0.0000  0.0000 </r>
       </set>
       <set comment="band 9">
        <r>  0.0000  0.0000  0.1368  0.0002  0.0000  0.0000  0.0000  0.0000  0.0000 </r>
        <r>  0.0000  0.0000  0.1368  0.0002  0.0000  0.0000  0.0000  0.0000  0.0000 </r>
        <r>  0.0000  0.0000  0.1368  0.0002  0.0000  0.0000  0.0000  0.0000  0.0000 </r>
        <r>  0.0000  0.0000  0.1368  0.0002  0.0000  0.0000  0.0000  0.0000  0.0000 </r>
       </set>
       <set comment="band 10">
        <r>  0.0000  0.0000  0.1448  0.0002  0.0000  0.0000  0.0000  0.0000  0.0000 </r>
        <r>  0.0000  0.0000  0.1448  0.0002  0.0000  0.0000  0.0000  0.0000  0.0000 </r>
        <r>  0.0000  0.0000  0.1448  0.0002  0.0000  0.0000  0.0000  0.0000  0.0000 </r>
        <r>  0.0000  0.0000  0.1448  0.0002  0.0000  0.0000  0.0000  0.0000  0.0000 </r>
       </set>
       <set comment="band 11">
        <r>  0.0010  0.0061  0.0150  0.0051  0.0000  0.0000  0.0000  0.0000  0.0000 </r>
        <r>  0.0010  0.0061  0.0150  0.0051  0.0000  0.0000  0.0000  0.0000  0.0000 </r>
        <r>  0.0010  0.0061  0.0150  0.0051  0.0000  0.0000  0.0000  0.0000  0.0000 </r>
        <r>  0.0010  0.0061  0.0150  0.0051  0.0000  0.0000  0.0000  0.0000  0.0000 </r>
       </set>
       <set comment="band 12">
        <r>  0.0175  0.0230  0.0029  0.0650  0.0000  0.0000  0.0000  0.0000  0.0000 </r>
        <r>  0.0175  0.0230  0.0029  0.0650  0.0000  0.0000  0.0000  0.0000  0.0000 </r>
        <r>  0.0175  0.0230  0.0029  0.0650  0.0000  0.0000  0.0000  0.0000  0.0000 </r>
        <r>  0.0175  0.0230  0.0029  0.0650  0.0000  0.0000  0.0000  0.0000  0.0000 </r>
       </set>
      </set>
      <set comment="kpoint 42">
       <set comment="band 1">
        <r>  0.1371  0.0321  0.0000  0.0036  0.0000  0.0000  0.0000  0.0000  0.0000 </r>
        <r>  0.1371  0.0321  0.0000  0.0036  0.0000  0.0000  0.0000  0.0000  0.0000 </r>
        <r>  0.1371  0.0321  0.0000  0.0036  0.0000  0.0000  0.0000  0.0000  0.0000 </r>
        <r>  0.1371  0.0321  0.0000  0.0036  0.0000  0.0000  0.0000  0.0000  0.0000 </r>
       </set>
       <set comment="band 2">
        <r>  0.1432  0.0288  0.0000  0.0105  0.0000  0.0000  0.0000  0.0000  0.0000 </r>
        <r>  0.1432  0.0288  0.0000  0.0105  0.0000  0.0000  0.0000  0.0000  0.0000 </r>
        <r>  0.1432  0.0288  0.0000  0.0105  0.0000  0.0000  0.0000  0.0000  0.0000 </r>
        <r>  0.1432  0.0288  0.0000  0.0105  0.0000  0.0000  0.0000  0.0000  0.0000 </r>
       </set>
       <set comment="band 3">
        <r>  0.0741  0.0698  0.0000  0.0265  0.0000  0.0000  0.0000  0.0000  0.0000 </r>
        <r>  0.0741  0.0698  0.0000  0.0265  0.0000  0.0000  0.0000  0.0000  0.0000 </r>
        <r>  0.0741  0.0698  0.0000  0.0265  0.0000  0.0000  0.0000  0.0000  0.0000 </r>
        <r>  0.0741  0.0698  0.0000  0.0265  0.0000  0.0000  0.0000  0.0000  0.0000 </r>
       </set>
       <set comment="band 4">
        <r>  0.0778  0.0695  0.0000  0.0318  0.0000  0.0000  0.0000  0.0000  0.0000 </r>
        <r>  0.0778  0.0695  0.0000  0.0318  0.0000  0.0000  0.0000  0.0000  0.0000 </r>
        <r>  0.0778  0.0695  0.0000  0.0318  0.0000  0.0000  0.0000  0.0000  0.0000 </r>
        <r>  0.0778  0.0695  0.0000  0.0318  0.0000  0.0000  0.0000  0.0000  0.0000 </r>
       </set>
       <set comment="band 5">
        <r>  0.0193  0.0438  0.0000  0.1200  0.0000  0.0000  0.0000  0.0000  0.0000 </r>
        <r>  0.0193  0.0438  0.0000  0.1200  0.0000  0.0000  0.0000  0.0000  0.0000 </r>
        <r>  0.0193  0.0438  0.0000  0.1200  0.0000  0.0000  0.0000  0.0000  0.0000 </r>
        <r>  0.0193  0.0438  0.0000  0.1200  0.0000  0.0000  0.0000  0.0000  0.0000 </r>
       </set>
       <set comment="band 6">
        <r>  0.0074  0.0484  0.0000  0.1351  0.0000  0.0000  0.0000  0.0000  0.0000 </r>
        <r>  0.0074  0.0484  0.0000  0.1351  0.0000  0.0000  0.0000  0.0000  0.0000 </r>
        <r>  0.0074  0.0484  0.0000  0.1351  0.0000  0.0000  0.0000  0.0000  0.0000 </r>
        <r>  0.0074  0.0484  0.0000  0.1351  0.0000  0.0000  0.0000  0.0000  0.0000 </r>
       </set>
       <set comment="band 7">
        <r>  0.0000  0.0000  0.1066  0.0000  0.0000  0.0000  0.0000  0.0000  0.0000 </r>
        <r>  0.0000  0.0000  0.1066  0.0000  0.0000  0.0000  0.0000  0.0000  0.0000 </r>
        <r>  0.0000  0.0000  0.1066  0.0000  0.0000  0.0000  0.0000  0.0000  0.0000 </r>
        <r>  0.0000  0.0000  0.1066  0.0000  0.0000  0.0000  0.0000  0.0000  0.0000 </r>
       </set>
       <set comment="band 8">
        <r>  0.0001  0.0000  0.1211  0.0000  0.0000  0.0000  0.0000  0.0000  0.0000 </r>
        <r>  0.0001  0.0000  0.1211  0.0000  0.0000  0.0000  0.0000  0.0000  0.0000 </r>
        <r>  0.0001  0.0000  0.1211  0.0000  0.0000  0.0000  0.0000  0.0000  0.0000 </r>
        <r>  0.0001  0.0000  0.1211  0.0000  0.0000  0.0000  0.0000  0.0000  0.0000 </r>
       </set>
       <set comment="band 9">
        <r>  0.0001  0.0000  0.1230  0.0002  0.0000  0.0000  0.0000  0.0000  0.0000 </r>
        <r>  0.0001  0.0000  0.1230  0.0002  0.0000  0.0000  0.0000  0.0000  0.0000 </r>
        <r>  0.0001  0.0000  0.1230  0.0002  0.0000  0.0000  0.0000  0.0000  0.0000 </r>
        <r>  0.0001  0.0000  0.1230  0.0002  0.0000  0.0000  0.0000  0.0000  0.0000 </r>
       </set>
       <set comment="band 10">
        <r>  0.0001  0.0001  0.1349  0.0001  0.0000  0.0000  0.0000  0.0000  0.0000 </r>
        <r>  0.0001  0.0001  0.1349  0.0001  0.0000  0.0000  0.0000  0.0000  0.0000 </r>
        <r>  0.0001  0.0001  0.1349  0.0001  0.0000  0.0000  0.0000  0.0000  0.0000 </r>
        <r>  0.0001  0.0001  0.1349  0.0001  0.0000  0.0000  0.0000  0.0000  0.0000 </r>
       </set>
       <set comment="band 11">
        <r>  0.0750  0.0169  0.0002  0.0248  0.0000  0.0000  0.0000  0.0000  0.0000 </r>
        <r>  0.0750  0.0169  0.0002  0.0248  0.0000  0.0000  0.0000  0.0000  0.0000 </r>
        <r>  0.0750  0.0169  0.0002  0.0248  0.0000  0.0000  0.0000  0.0000  0.0000 </r>
        <r>  0.0750  0.0169  0.0002  0.0248  0.0000  0.0000  0.0000  0.0000  0.0000 </r>
       </set>
       <set comment="band 12">
        <r>  0.0611  0.0245  0.0001  0.0344  0.0000  0.0000  0.0000  0.0000  0.0000 </r>
        <r>  0.0611  0.0245  0.0001  0.0344  0.0000  0.0000  0.0000  0.0000  0.0000 </r>
        <r>  0.0611  0.0245  0.0001  0.0344  0.0000  0.0000  0.0000  0.0000  0.0000 </r>
        <r>  0.0611  0.0245  0.0001  0.0344  0.0000  0.0000  0.0000  0.0000  0.0000 </r>
       </set>
      </set>
      <set comment="kpoint 43">
       <set comment="band 1">
        <r>  0.1330  0.0283  0.0000  0.0127  0.0000  0.0000  0.0000  0.0000  0.0000 </r>
        <r>  0.1330  0.0283  0.0000  0.0127  0.0000  0.0000  0.0000  0.0000  0.0000 </r>
        <r>  0.1330  0.0283  0.0000  0.0127  0.0000  0.0000  0.0000  0.0000  0.0000 </r>
        <r>  0.1330  0.0283  0.0000  0.0127  0.0000  0.0000  0.0000  0.0000  0.0000 </r>
       </set>
       <set comment="band 2">
        <r>  0.1355  0.0283  0.0000  0.0127  0.0000  0.0000  0.0000  0.0000  0.0000 </r>
        <r>  0.1355  0.0283  0.0000  0.0127  0.0000  0.0000  0.0000  0.0000  0.0000 </r>
        <r>  0.1355  0.0283  0.0000  0.0127  0.0000  0.0000  0.0000  0.0000  0.0000 </r>
        <r>  0.1355  0.0283  0.0000  0.0127  0.0000  0.0000  0.0000  0.0000  0.0000 </r>
       </set>
       <set comment="band 3">
        <r>  0.0829  0.0709  0.0000  0.0199  0.0000  0.0000  0.0000  0.0000  0.0000 </r>
        <r>  0.0829  0.0709  0.0000  0.0199  0.0000  0.0000  0.0000  0.0000  0.0000 </r>
        <r>  0.0829  0.0709  0.0000  0.0199  0.0000  0.0000  0.0000  0.0000  0.0000 </r>
        <r>  0.0829  0.0709  0.0000  0.0199  0.0000  0.0000  0.0000  0.0000  0.0000 </r>
       </set>
       <set comment="band 4">
        <r>  0.0848  0.0711  0.0000  0.0198  0.0000  0.0000  0.0000  0.0000  0.0000 </r>
        <r>  0.0848  0.0711  0.0000  0.0198  0.0000  0.0000  0.0000  0.0000  0.0000 </r>
        <r>  0.0848  0.0711  0.0000  0.0198  0.0000  0.0000  0.0000  0.0000  0.0000 </r>
        <r>  0.0848  0.0711  0.0000  0.0198  0.0000  0.0000  0.0000  0.0000  0.0000 </r>
       </set>
       <set comment="band 5">
        <r>  0.0015  0.0478  0.0000  0.1452  0.0000  0.0000  0.0000  0.0000  0.0000 </r>
        <r>  0.0015  0.0478  0.0000  0.1452  0.0000  0.0000  0.0000  0.0000  0.0000 </r>
        <r>  0.0015  0.0478  0.0000  0.1452  0.0000  0.0000  0.0000  0.0000  0.0000 </r>
        <r>  0.0015  0.0478  0.0000  0.1452  0.0000  0.0000  0.0000  0.0000  0.0000 </r>
       </set>
       <set comment="band 6">
        <r>  0.0015  0.0478  0.0000  0.1452  0.0000  0.0000  0.0000  0.0000  0.0000 </r>
        <r>  0.0015  0.0478  0.0000  0.1452  0.0000  0.0000  0.0000  0.0000  0.0000 </r>
        <r>  0.0015  0.0478  0.0000  0.1452  0.0000  0.0000  0.0000  0.0000  0.0000 </r>
        <r>  0.0015  0.0478  0.0000  0.1452  0.0000  0.0000  0.0000  0.0000  0.0000 </r>
       </set>
       <set comment="band 7">
        <r>  0.0000  0.0001  0.1136  0.0000  0.0000  0.0000  0.0000  0.0000  0.0000 </r>
        <r>  0.0000  0.0001  0.1136  0.0000  0.0000  0.0000  0.0000  0.0000  0.0000 </r>
        <r>  0.0000  0.0001  0.1136  0.0000  0.0000  0.0000  0.0000  0.0000  0.0000 </r>
        <r>  0.0000  0.0001  0.1136  0.0000  0.0000  0.0000  0.0000  0.0000  0.0000 </r>
       </set>
       <set comment="band 8">
        <r>  0.0002  0.0002  0.1223  0.0000  0.0000  0.0000  0.0000  0.0000  0.0000 </r>
        <r>  0.0002  0.0002  0.1223  0.0000  0.0000  0.0000  0.0000  0.0000  0.0000 </r>
        <r>  0.0002  0.0002  0.1223  0.0000  0.0000  0.0000  0.0000  0.0000  0.0000 </r>
        <r>  0.0002  0.0002  0.1223  0.0000  0.0000  0.0000  0.0000  0.0000  0.0000 </r>
       </set>
       <set comment="band 9">
        <r>  0.0002  0.0001  0.1061  0.0000  0.0000  0.0000  0.0000  0.0000  0.0000 </r>
        <r>  0.0002  0.0001  0.1061  0.0000  0.0000  0.0000  0.0000  0.0000  0.0000 </r>
        <r>  0.0002  0.0001  0.1061  0.0000  0.0000  0.0000  0.0000  0.0000  0.0000 </r>
        <r>  0.0002  0.0001  0.1061  0.0000  0.0000  0.0000  0.0000  0.0000  0.0000 </r>
       </set>
       <set comment="band 10">
        <r>  0.0002  0.0002  0.1147  0.0000  0.0000  0.0000  0.0000  0.0000  0.0000 </r>
        <r>  0.0002  0.0002  0.1147  0.0000  0.0000  0.0000  0.0000  0.0000  0.0000 </r>
        <r>  0.0002  0.0002  0.1147  0.0000  0.0000  0.0000  0.0000  0.0000  0.0000 </r>
        <r>  0.0002  0.0002  0.1147  0.0000  0.0000  0.0000  0.0000  0.0000  0.0000 </r>
       </set>
       <set comment="band 11">
        <r>  0.0867  0.0181  0.0000  0.0066  0.0000  0.0000  0.0000  0.0000  0.0000 </r>
        <r>  0.0867  0.0181  0.0000  0.0066  0.0000  0.0000  0.0000  0.0000  0.0000 </r>
        <r>  0.0867  0.0181  0.0000  0.0066  0.0000  0.0000  0.0000  0.0000  0.0000 </r>
        <r>  0.0867  0.0181  0.0000  0.0066  0.0000  0.0000  0.0000  0.0000  0.0000 </r>
       </set>
       <set comment="band 12">
        <r>  0.0872  0.0177  0.0000  0.0066  0.0000  0.0000  0.0000  0.0000  0.0000 </r>
        <r>  0.0872  0.0177  0.0000  0.0066  0.0000  0.0000  0.0000  0.0000  0.0000 </r>
        <r>  0.0872  0.0177  0.0000  0.0066  0.0000  0.0000  0.0000  0.0000  0.0000 </r>
        <r>  0.0872  0.0177  0.0000  0.0066  0.0000  0.0000  0.0000  0.0000  0.0000 </r>
       </set>
      </set>
      <set comment="kpoint 44">
       <set comment="band 1">
        <r>  0.1358  0.0319  0.0000  0.0036  0.0000  0.0000  0.0000  0.0000  0.0000 </r>
        <r>  0.1358  0.0319  0.0000  0.0036  0.0000  0.0000  0.0000  0.0000  0.0000 </r>
        <r>  0.1358  0.0319  0.0000  0.0036  0.0000  0.0000  0.0000  0.0000  0.0000 </r>
        <r>  0.1358  0.0319  0.0000  0.0036  0.0000  0.0000  0.0000  0.0000  0.0000 </r>
       </set>
       <set comment="band 2">
        <r>  0.1419  0.0316  0.0000  0.0088  0.0000  0.0000  0.0000  0.0000  0.0000 </r>
        <r>  0.1419  0.0316  0.0000  0.0088  0.0000  0.0000  0.0000  0.0000  0.0000 </r>
        <r>  0.1419  0.0316  0.0000  0.0088  0.0000  0.0000  0.0000  0.0000  0.0000 </r>
        <r>  0.1419  0.0316  0.0000  0.0088  0.0000  0.0000  0.0000  0.0000  0.0000 </r>
       </set>
       <set comment="band 3">
        <r>  0.0762  0.0670  0.0000  0.0285  0.0000  0.0000  0.0000  0.0000  0.0000 </r>
        <r>  0.0762  0.0670  0.0000  0.0285  0.0000  0.0000  0.0000  0.0000  0.0000 </r>
        <r>  0.0762  0.0670  0.0000  0.0285  0.0000  0.0000  0.0000  0.0000  0.0000 </r>
        <r>  0.0762  0.0670  0.0000  0.0285  0.0000  0.0000  0.0000  0.0000  0.0000 </r>
       </set>
       <set comment="band 4">
        <r>  0.0789  0.0703  0.0000  0.0320  0.0000  0.0000  0.0000  0.0000  0.0000 </r>
        <r>  0.0789  0.0703  0.0000  0.0320  0.0000  0.0000  0.0000  0.0000  0.0000 </r>
        <r>  0.0789  0.0703  0.0000  0.0320  0.0000  0.0000  0.0000  0.0000  0.0000 </r>
        <r>  0.0789  0.0703  0.0000  0.0320  0.0000  0.0000  0.0000  0.0000  0.0000 </r>
       </set>
       <set comment="band 5">
        <r>  0.0190  0.0435  0.0000  0.1197  0.0000  0.0000  0.0000  0.0000  0.0000 </r>
        <r>  0.0190  0.0435  0.0000  0.1197  0.0000  0.0000  0.0000  0.0000  0.0000 </r>
        <r>  0.0190  0.0435  0.0000  0.1197  0.0000  0.0000  0.0000  0.0000  0.0000 </r>
        <r>  0.0190  0.0435  0.0000  0.1197  0.0000  0.0000  0.0000  0.0000  0.0000 </r>
       </set>
       <set comment="band 6">
        <r>  0.0073  0.0481  0.0000  0.1350  0.0000  0.0000  0.0000  0.0000  0.0000 </r>
        <r>  0.0073  0.0481  0.0000  0.1350  0.0000  0.0000  0.0000  0.0000  0.0000 </r>
        <r>  0.0073  0.0481  0.0000  0.1350  0.0000  0.0000  0.0000  0.0000  0.0000 </r>
        <r>  0.0073  0.0481  0.0000  0.1350  0.0000  0.0000  0.0000  0.0000  0.0000 </r>
       </set>
       <set comment="band 7">
        <r>  0.0003  0.0002  0.1122  0.0000  0.0000  0.0000  0.0000  0.0000  0.0000 </r>
        <r>  0.0003  0.0002  0.1122  0.0000  0.0000  0.0000  0.0000  0.0000  0.0000 </r>
        <r>  0.0003  0.0002  0.1122  0.0000  0.0000  0.0000  0.0000  0.0000  0.0000 </r>
        <r>  0.0003  0.0002  0.1122  0.0000  0.0000  0.0000  0.0000  0.0000  0.0000 </r>
       </set>
       <set comment="band 8">
        <r>  0.0001  0.0002  0.1215  0.0000  0.0000  0.0000  0.0000  0.0000  0.0000 </r>
        <r>  0.0001  0.0002  0.1215  0.0000  0.0000  0.0000  0.0000  0.0000  0.0000 </r>
        <r>  0.0001  0.0002  0.1215  0.0000  0.0000  0.0000  0.0000  0.0000  0.0000 </r>
        <r>  0.0001  0.0002  0.1215  0.0000  0.0000  0.0000  0.0000  0.0000  0.0000 </r>
       </set>
       <set comment="band 9">
        <r>  0.0002  0.0001  0.1133  0.0000  0.0000  0.0000  0.0000  0.0000  0.0000 </r>
        <r>  0.0002  0.0001  0.1133  0.0000  0.0000  0.0000  0.0000  0.0000  0.0000 </r>
        <r>  0.0002  0.0001  0.1133  0.0000  0.0000  0.0000  0.0000  0.0000  0.0000 </r>
        <r>  0.0002  0.0001  0.1133  0.0000  0.0000  0.0000  0.0000  0.0000  0.0000 </r>
       </set>
       <set comment="band 10">
        <r>  0.0001  0.0001  0.1204  0.0000  0.0000  0.0000  0.0000  0.0000  0.0000 </r>
        <r>  0.0001  0.0001  0.1204  0.0000  0.0000  0.0000  0.0000  0.0000  0.0000 </r>
        <r>  0.0001  0.0001  0.1204  0.0000  0.0000  0.0000  0.0000  0.0000  0.0000 </r>
        <r>  0.0001  0.0001  0.1204  0.0000  0.0000  0.0000  0.0000  0.0000  0.0000 </r>
       </set>
       <set comment="band 11">
        <r>  0.0729  0.0171  0.0001  0.0252  0.0000  0.0000  0.0000  0.0000  0.0000 </r>
        <r>  0.0729  0.0171  0.0001  0.0252  0.0000  0.0000  0.0000  0.0000  0.0000 </r>
        <r>  0.0729  0.0171  0.0001  0.0252  0.0000  0.0000  0.0000  0.0000  0.0000 </r>
        <r>  0.0729  0.0171  0.0001  0.0252  0.0000  0.0000  0.0000  0.0000  0.0000 </r>
       </set>
       <set comment="band 12">
        <r>  0.0609  0.0232  0.0000  0.0359  0.0000  0.0000  0.0000  0.0000  0.0000 </r>
        <r>  0.0609  0.0232  0.0000  0.0359  0.0000  0.0000  0.0000  0.0000  0.0000 </r>
        <r>  0.0609  0.0232  0.0000  0.0359  0.0000  0.0000  0.0000  0.0000  0.0000 </r>
        <r>  0.0609  0.0232  0.0000  0.0359  0.0000  0.0000  0.0000  0.0000  0.0000 </r>
       </set>
      </set>
     </set>
    </set>
   </array>
  </projected>
 </calculation>
 <structure name="finalpos" >
  <crystal>
   <varray name="basis" >
    <v>       4.27555346       0.00000000       0.02441674 </v>
    <v>       0.00000000       2.46468697       0.00000000 </v>
    <v>      -1.36591421       0.00000000       3.31784208 </v>
   </varray>
   <i name="volume">     35.04529117 </i>
   <varray name="rec_basis" >
    <v>       0.23333925       0.00000000       0.09606286 </v>
    <v>       0.00000000       0.40573104       0.00000000 </v>
    <v>      -0.00171720       0.00000000       0.30069377 </v>
   </varray>
  </crystal>
  <varray name="positions" >
   <v>       0.16694947       0.00000000       0.99990487 </v>
   <v>       0.83305053       0.00000000       0.00009513 </v>
   <v>       0.66694947       0.50000000       0.99990487 </v>
   <v>       0.33305053       0.50000000       0.00009513 </v>
  </varray>
 </structure>
</modeling>
