Automatically generated mesh
      30
Reciprocal lattice
    0.00000000000000    0.00000000000000    0.00000000000000             1
    0.12500000000000    0.00000000000000    0.00000000000000             6
    0.25000000000000    0.00000000000000    0.00000000000000             6
    0.37500000000000    0.00000000000000    0.00000000000000             6
    0.50000000000000    0.00000000000000    0.00000000000000             3
    0.12500000000000    0.12500000000000    0.00000000000000             6
    0.25000000000000    0.12500000000000    0.00000000000000            12
    0.37500000000000    0.12500000000000    0.00000000000000            12
    0.25000000000000    0.25000000000000    0.00000000000000             6
    0.37500000000000    0.25000000000000    0.00000000000000             6
    0.00000000000000    0.00000000000000    0.20000000000000             2
    0.12500000000000    0.00000000000000    0.20000000000000            12
    0.25000000000000    0.00000000000000    0.20000000000000            12
    0.37500000000000    0.00000000000000    0.20000000000000            12
    0.50000000000000    0.00000000000000    0.20000000000000             6
    0.12500000000000    0.12500000000000    0.20000000000000            12
    0.25000000000000    0.12500000000000    0.20000000000000            24
    0.37500000000000    0.12500000000000    0.20000000000000            24
    0.25000000000000    0.25000000000000    0.20000000000000            12
    0.37500000000000    0.25000000000000    0.20000000000000            12
    0.00000000000000    0.00000000000000    0.40000000000000             2
    0.12500000000000    0.00000000000000    0.40000000000000            12
    0.25000000000000    0.00000000000000    0.40000000000000            12
    0.37500000000000    0.00000000000000    0.40000000000000            12
    0.50000000000000    0.00000000000000    0.40000000000000             6
    0.12500000000000    0.12500000000000    0.40000000000000            12
    0.25000000000000    0.12500000000000    0.40000000000000            24
    0.37500000000000    0.12500000000000    0.40000000000000            24
    0.25000000000000    0.25000000000000    0.40000000000000            12
    0.37500000000000    0.25000000000000    0.40000000000000            12
