unknown system                          
           1
     2.434158    0.000000    0.000000
    -1.217079    2.108042    0.000000
     0.000000    0.000000    3.841934
   Fe
     2
Direct configuration=     1
   0.33333333  0.66666667  0.25000000
   0.66666667  0.33333333  0.75000000
unknown system                          
           1
     2.503206    0.000000   -0.000000
    -1.251603    2.167840   -0.000000
     0.000000    0.000000    3.959312
   Fe
     2
Direct configuration=     2
   0.33333333  0.66666667  0.25000000
   0.66666667  0.33333333  0.75000000
unknown system                          
           1
     2.458810    0.000000   -0.000000
    -1.229405    2.129392   -0.000000
     0.000000    0.000000    3.883842
   Fe
     2
Direct configuration=     3
   0.33333333  0.66666667  0.25000000
   0.66666667  0.33333333  0.75000000
