    4    4  100    1
  0.9152720E+01  0.4254641E-09  0.2456565E-09  0.3764525E-09  0.5000000E-15
  1.000000000000000E-004
  CAR 
 unknown system                          
     16     44     12
 
  0.1276756E-14  0.1276756E-14  0.1276756E-14  0.7142857E-02
      1        -14.902684   1.000000
      2         -9.478382   1.000000
      3         -8.404625   1.000000
      4         -1.737723   1.000000
      5         -1.668844   1.000000
      6          1.710102   1.000000
      7          1.781122   1.000000
      8          2.065656   1.000000
      9          6.157258   0.000000
     10          9.113997   0.000000
     11         11.952781   0.000000
     12         13.043921   0.000000
 
  0.2500000E+00  0.1276756E-14  0.8389398E-14  0.1428571E-01
      1        -14.513214   1.000000
      2        -11.509311   1.000000
      3         -5.863695   1.000000
      4         -1.468566   1.000000
      5         -1.305461   1.000000
      6          0.401255   1.000000
      7          0.861546   1.000000
      8          1.010356   1.000000
      9          8.150610   0.000000
     10          9.867520   0.000000
     11         12.167530   0.000000
     12         13.153766   0.000000
 
  0.5000000E+00  0.1276756E-14  0.1299159E-14  0.7142857E-02
      1        -13.362247   1.000000
      2        -13.362247   1.000000
      3         -2.592135   1.000000
      4         -2.592135   1.000000
      5         -0.607765   1.000000
      6         -0.607765   1.000000
      7         -0.296549   1.000000
      8         -0.296549   1.000000
      9         11.574432   0.000000
     10         11.574432   0.000000
     11         12.035210   0.000000
     12         12.035210   0.000000
 
  0.1276756E-14  0.1428571E+00  0.1276756E-14  0.1428571E-01
      1        -14.537530   1.000000
      2         -9.169862   1.000000
      3         -8.108805   1.000000
      4         -3.087775   1.000000
      5         -1.324787   1.000000
      6          0.421372   1.000000
      7          1.021373   1.000000
      8          2.508272   1.000000
      9          6.123828   0.000000
     10          9.554474   0.000000
     11         13.441229   0.000000
     12         13.855967   0.000000
 
  0.2500000E+00  0.1428571E+00  0.8389398E-14  0.2857143E-01
      1        -14.149980   1.000000
      2        -11.168717   1.000000
      3         -5.669404   1.000000
      4         -2.685008   1.000000
      5         -1.057786   1.000000
      6         -0.680721   1.000000
      7          0.416218   1.000000
      8          1.268139   1.000000
      9          8.046439   0.000000
     10         10.303312   0.000000
     11         13.385870   0.000000
     12         13.825154   0.000000
 
  0.5000000E+00  0.1428571E+00  0.1299159E-14  0.1428571E-01
      1        -13.005866   1.000000
      2        -13.005866   1.000000
      3         -2.782331   1.000000
      4         -2.782331   1.000000
      5         -1.431341   1.000000
      6         -1.431341   1.000000
      7         -0.201898   1.000000
      8         -0.201898   1.000000
      9         11.195335   0.000000
     10         11.195335   0.000000
     11         12.401937   0.000000
     12         12.401937   0.000000
 
  0.1276756E-14  0.2857143E+00  0.1276756E-14  0.1428571E-01
      1        -13.451683   1.000000
      2         -8.247048   1.000000
      3         -7.572547   1.000000
      4         -5.530253   1.000000
      5         -2.121687   1.000000
      6         -0.854768   1.000000
      7         -0.118474   1.000000
      8          3.821467   1.000000
      9          5.579796   0.000000
     10         10.881028   0.000000
     11         11.971807   0.000000
     12         14.460174   0.000000
 
  0.2500000E+00  0.2857143E+00  0.8389398E-14  0.2857143E-01
      1        -13.070224   1.000000
      2        -10.167761   1.000000
      3         -6.182865   1.000000
      4         -4.256403   1.000000
      5         -3.369072   1.000000
      6         -0.526130   1.000000
      7          0.135916   1.000000
      8          2.396204   1.000000
      9          7.311937   0.000000
     10         11.143385   0.000000
     11         11.656159   0.000000
     12         12.918175   0.000000
 
  0.5000000E+00  0.2857143E+00  0.1299159E-14  0.1428571E-01
      1        -11.948356   1.000000
      2        -11.948356   1.000000
      3         -4.953764   1.000000
      4         -4.953764   1.000000
      5         -1.827452   1.000000
      6         -1.827452   1.000000
      7          0.955152   1.000000
      8          0.955152   1.000000
      9          9.474293   0.000000
     10          9.474293   0.000000
     11         13.466522   0.000000
     12         13.466522   0.000000
 
  0.1276756E-14  0.4285714E+00  0.1276756E-14  0.1428571E-01
      1        -11.682414   1.000000
      2         -9.354533   1.000000
      3         -6.723398   1.000000
      4         -5.052039   1.000000
      5         -4.640002   1.000000
      6         -3.082612   1.000000
      7          1.750135   1.000000
      8          3.920299   1.000000
      9          5.952098   0.000000
     10          8.771744   0.000000
     11         13.060317   0.000000
     12         15.824538   0.000000
 
  0.2500000E+00  0.4285714E+00  0.8389398E-14  0.2857143E-01
      1        -11.315128   1.000000
      2         -9.204773   1.000000
      3         -8.089484   1.000000
      4         -6.078675   1.000000
      5         -3.305789   1.000000
      6         -1.883554   1.000000
      7          1.925089   1.000000
      8          3.342243   1.000000
      9          6.411966   0.000000
     10          8.244114   0.000000
     11         13.227296   0.000000
     12         13.835309   0.000000
 
  0.5000000E+00  0.4285714E+00  0.1299159E-14  0.1428571E-01
      1        -10.263812   1.000000
      2        -10.263812   1.000000
      3         -7.675508   1.000000
      4         -7.675508   1.000000
      5         -1.642698   1.000000
      6         -1.642698   1.000000
      7          2.478241   1.000000
      8          2.478241   1.000000
      9          7.264603   0.000000
     10          7.264603   0.000000
     11         12.490680   0.000000
     12         12.490680   0.000000
 
  0.1276756E-14  0.1276756E-14  0.2000000E+00  0.1428571E-01
      1        -14.796683   1.000000
      2         -9.518886   1.000000
      3         -8.419135   1.000000
      4         -2.548279   1.000000
      5         -1.648270   1.000000
      6          1.704564   1.000000
      7          1.772832   1.000000
      8          2.187018   1.000000
      9          6.525241   0.000000
     10         10.947935   0.000000
     11         12.093799   0.000000
     12         13.021307   0.000000
 
  0.2500000E+00  0.1276756E-14  0.2000000E+00  0.1428571E-01
      1        -14.350861   1.000000
      2        -11.621129   1.000000
      3         -5.857532   1.000000
      4         -2.607119   1.000000
      5         -1.274619   1.000000
      6          0.386846   1.000000
      7          0.992571   1.000000
      8          1.651261   1.000000
      9          8.179965   0.000000
     10         12.333556   0.000000
     11         12.662722   0.000000
     12         13.181080   0.000000
 
  0.5000000E+00  0.1276756E-14  0.2000000E+00  0.1428571E-01
      1        -13.420381   1.000000
      2        -13.190050   1.000000
      3         -2.641160   1.000000
      4         -2.617689   1.000000
      5         -1.709186   1.000000
      6         -0.307874   1.000000
      7         -0.266138   1.000000
      8         -0.143465   1.000000
      9         10.967653   0.000000
     10         11.783116   0.000000
     11         11.979168   0.000000
     12         12.677394   0.000000
 
 -0.2500000E+00  0.1276756E-14  0.2000000E+00  0.1428571E-01
      1        -14.489950   1.000000
      2        -11.377096   1.000000
      3         -5.956560   1.000000
      4         -1.655628   1.000000
      5         -1.301129   1.000000
      6          0.114965   1.000000
      7          0.378442   1.000000
      8          1.027451   1.000000
      9          8.737687   0.000000
     10         10.269896   0.000000
     11         12.210721   0.000000
     12         13.196691   0.000000
 
  0.1276756E-14  0.1428571E+00  0.2000000E+00  0.2857143E-01
      1        -14.433774   1.000000
      2         -9.208896   1.000000
      3         -8.121531   1.000000
      4         -3.055369   1.000000
      5         -2.122200   1.000000
      6          0.411986   1.000000
      7          1.013264   1.000000
      8          2.624347   1.000000
      9          6.400489   0.000000
     10         11.351923   0.000000
     11         13.431557   0.000000
     12         14.009903   0.000000
 
  0.2500000E+00  0.1428571E+00  0.2000000E+00  0.2857143E-01
      1        -13.991149   1.000000
      2        -11.277467   1.000000
      3         -5.659850   1.000000
      4         -2.638055   1.000000
      5         -2.177233   1.000000
      6         -0.714144   1.000000
      7          0.407322   1.000000
      8          2.041311   1.000000
      9          7.951584   0.000000
     10         12.990245   0.000000
     11         13.510145   0.000000
     12         13.556049   0.000000
 
  0.5000000E+00  0.1428571E+00  0.2000000E+00  0.2857143E-01
      1        -13.062547   1.000000
      2        -12.837613   1.000000
      3         -2.823418   1.000000
      4         -2.779976   1.000000
      5         -1.454049   1.000000
      6         -1.407170   1.000000
      7         -1.284088   1.000000
      8          0.249453   1.000000
      9         11.093510   0.000000
     10         11.447001   0.000000
     11         11.520060   0.000000
     12         14.329793   0.000000
 
 -0.2500000E+00  0.1428571E+00  0.2000000E+00  0.2857143E-01
      1        -14.127169   1.000000
      2        -11.039881   1.000000
      3         -5.755167   1.000000
      4         -2.681066   1.000000
      5         -1.242884   1.000000
      6         -0.651703   1.000000
      7          0.396110   1.000000
      8          0.530630   1.000000
      9          8.554102   0.000000
     10         10.696059   0.000000
     11         13.303228   0.000000
     12         13.755946   0.000000
 
  0.1276756E-14  0.2857143E+00  0.2000000E+00  0.2857143E-01
      1        -13.354372   1.000000
      2         -8.283673   1.000000
      3         -7.558747   1.000000
      4         -5.502071   1.000000
      5         -2.136788   1.000000
      6         -0.874559   1.000000
      7         -0.862101   1.000000
      8          3.892482   1.000000
      9          5.581144   0.000000
     10         12.098157   0.000000
     11         12.559379   0.000000
     12         14.404563   0.000000
 
  0.2500000E+00  0.2857143E+00  0.2000000E+00  0.2857143E-01
      1        -12.921913   1.000000
      2        -10.266553   1.000000
      3         -6.112946   1.000000
      4         -4.241855   1.000000
      5         -3.422760   1.000000
      6         -0.917043   1.000000
      7         -0.530062   1.000000
      8          3.065954   1.000000
      9          6.913206   0.000000
     10         11.576793   0.000000
     11         12.772415   0.000000
     12         14.403508   0.000000
 
  0.5000000E+00  0.2857143E+00  0.2000000E+00  0.2857143E-01
      1        -12.000682   1.000000
      2        -11.791947   1.000000
      3         -4.986202   1.000000
      4         -4.872416   1.000000
      5         -1.859957   1.000000
      6         -1.846900   1.000000
      7         -0.053105   1.000000
      8          1.346640   1.000000
      9          9.022795   0.000000
     10          9.776457   0.000000
     11         12.695777   0.000000
     12         13.597971   0.000000
 
 -0.2500000E+00  0.2857143E+00  0.2000000E+00  0.2857143E-01
      1        -13.048581   1.000000
      2        -10.049112   1.000000
      3         -6.195052   1.000000
      4         -4.310177   1.000000
      5         -3.310354   1.000000
      6         -0.554996   1.000000
      7         -0.044699   1.000000
      8          1.697042   1.000000
      9          7.567711   0.000000
     10         10.861289   0.000000
     11         11.929371   0.000000
     12         12.831063   0.000000
 
  0.1276756E-14  0.4285714E+00  0.2000000E+00  0.2857143E-01
      1        -11.595755   1.000000
      2         -9.284624   1.000000
      3         -6.750450   1.000000
      4         -5.065351   1.000000
      5         -4.661497   1.000000
      6         -3.095531   1.000000
      7          1.091174   1.000000
      8          3.439628   1.000000
      9          6.136255   0.000000
     10          8.918561   0.000000
     11         14.361167   0.000000
     12         15.386440   0.000000
 
  0.2500000E+00  0.4285714E+00  0.2000000E+00  0.2857143E-01
      1        -11.184394   1.000000
      2         -9.160227   1.000000
      3         -8.112326   1.000000
      4         -6.149620   1.000000
      5         -3.304265   1.000000
      6         -1.884466   1.000000
      7          1.044200   1.000000
      8          3.144051   1.000000
      9          6.469173   0.000000
     10          8.695893   0.000000
     11         13.237829   0.000000
     12         14.709482   0.000000
 
  0.5000000E+00  0.4285714E+00  0.2000000E+00  0.2857143E-01
      1        -10.303616   1.000000
      2        -10.131238   1.000000
      3         -7.710412   1.000000
      4         -7.569566   1.000000
      5         -1.666450   1.000000
      6         -1.662300   1.000000
      7          1.726791   1.000000
      8          2.557461   1.000000
      9          6.802132   0.000000
     10          7.432169   0.000000
     11         12.342427   0.000000
     12         12.347810   0.000000
 
 -0.2500000E+00  0.4285714E+00  0.2000000E+00  0.2857143E-01
      1        -11.294801   1.000000
      2         -9.158007   1.000000
      3         -8.021147   1.000000
      4         -5.998748   1.000000
      5         -3.362895   1.000000
      6         -1.924236   1.000000
      7          1.729524   1.000000
      8          2.879947   1.000000
      9          6.262005   0.000000
     10          7.817086   0.000000
     11         13.008845   0.000000
     12         14.166732   0.000000
 
  0.1276756E-14  0.1276756E-14  0.4000000E+00  0.1428571E-01
      1        -14.613943   1.000000
      2         -9.568229   1.000000
      3         -8.465971   1.000000
      4         -3.628866   1.000000
      5         -1.614640   1.000000
      6          1.695637   1.000000
      7          1.759461   1.000000
      8          2.571657   1.000000
      9          6.734891   0.000000
     10         12.332027   0.000000
     11         12.984036   0.000000
     12         13.128819   0.000000
 
  0.2500000E+00  0.1276756E-14  0.4000000E+00  0.1428571E-01
      1        -14.218095   1.000000
      2        -11.565275   1.000000
      3         -5.947113   1.000000
      4         -3.337267   1.000000
      5         -1.251021   1.000000
      6          0.355408   1.000000
      7          0.998599   1.000000
      8          1.272480   1.000000
      9          8.661472   0.000000
     10         12.524445   0.000000
     11         13.061551   0.000000
     12         14.276358   0.000000
 
  0.5000000E+00  0.1276756E-14  0.4000000E+00  0.1428571E-01
      1        -13.290312   1.000000
      2        -13.142391   1.000000
      3         -2.695443   1.000000
      4         -2.681212   1.000000
      5         -1.964974   1.000000
      6         -1.103082   1.000000
      7         -0.284605   1.000000
      8         -0.258693   1.000000
      9         12.120067   0.000000
     10         12.303166   0.000000
     11         12.819488   0.000000
     12         12.824395   0.000000
 
 -0.2500000E+00  0.1276756E-14  0.4000000E+00  0.1428571E-01
      1        -14.310278   1.000000
      2        -11.413854   1.000000
      3         -6.006317   1.000000
      4         -2.844754   1.000000
      5         -1.267527   1.000000
      6          0.328956   1.000000
      7          0.350218   1.000000
      8          1.020157   1.000000
      9          9.104266   0.000000
     10         12.422719   0.000000
     11         13.067584   0.000000
     12         13.647798   0.000000
 
  0.1276756E-14  0.1428571E+00  0.4000000E+00  0.2857143E-01
      1        -14.255145   1.000000
      2         -9.256838   1.000000
      3         -8.164296   1.000000
      4         -3.188022   1.000000
      5         -3.001936   1.000000
      6          0.398123   1.000000
      7          0.998820   1.000000
      8          3.006348   1.000000
      9          6.481700   0.000000
     10         13.347108   0.000000
     11         14.205396   0.000000
     12         14.976976   0.000000
 
  0.2500000E+00  0.1428571E+00  0.4000000E+00  0.2857143E-01
      1        -13.861563   1.000000
      2        -11.222821   1.000000
      3         -5.740548   1.000000
      4         -2.897852   1.000000
      5         -2.603992   1.000000
      6         -0.705920   1.000000
      7          0.381648   1.000000
      8          1.661342   1.000000
      9          8.305874   0.000000
     10         13.217575   0.000000
     11         14.123745   0.000000
     12         14.296864   0.000000
 
  0.5000000E+00  0.1428571E+00  0.4000000E+00  0.2857143E-01
      1        -12.935373   1.000000
      2        -12.791010   1.000000
      3         -2.846727   1.000000
      4         -2.820808   1.000000
      5         -1.538079   1.000000
      6         -1.442732   1.000000
      7         -1.412807   1.000000
      8         -0.692424   1.000000
      9         11.360131   0.000000
     10         11.631629   0.000000
     11         13.575770   0.000000
     12         14.433780   0.000000
 
 -0.2500000E+00  0.1428571E+00  0.4000000E+00  0.2857143E-01
      1        -13.951438   1.000000
      2        -11.075455   1.000000
      3         -5.797717   1.000000
      4         -2.630998   1.000000
      5         -2.413023   1.000000
      6         -0.667860   1.000000
      7          0.375018   1.000000
      8          0.735911   1.000000
      9          8.737874   0.000000
     10         13.155046   0.000000
     11         13.799214   0.000000
     12         14.117545   0.000000
 
  0.1276756E-14  0.2857143E+00  0.4000000E+00  0.2857143E-01
      1        -13.187790   1.000000
      2         -8.326584   1.000000
      3         -7.558286   1.000000
      4         -5.453836   1.000000
      5         -2.160222   1.000000
      6         -1.887001   1.000000
      7         -0.883753   1.000000
      8          4.262952   1.000000
      9          5.259471   0.000000
     10         12.308277   0.000000
     11         14.262326   0.000000
     12         15.261706   0.000000
 
  0.2500000E+00  0.2857143E+00  0.4000000E+00  0.2857143E-01
      1        -12.801068   1.000000
      2        -10.214746   1.000000
      3         -6.082988   1.000000
      4         -4.283932   1.000000
      5         -3.398982   1.000000
      6         -1.605534   1.000000
      7         -0.561383   1.000000
      8          2.668784   1.000000
      9          6.898306   0.000000
     10         11.462703   0.000000
     11         12.653931   0.000000
     12         15.016799   0.000000
 
  0.5000000E+00  0.2857143E+00  0.4000000E+00  0.2857143E-01
      1        -11.881758   1.000000
      2        -11.748090   1.000000
      3         -4.926739   1.000000
      4         -4.855155   1.000000
      5         -1.898678   1.000000
      6         -1.890616   1.000000
      7         -0.303635   1.000000
      8          0.473452   1.000000
      9          8.964510   0.000000
     10          9.425518   0.000000
     11         13.373547   0.000000
     12         13.407778   0.000000
 
 -0.2500000E+00  0.2857143E+00  0.4000000E+00  0.2857143E-01
      1        -12.884452   1.000000
      2        -10.079657   1.000000
      3         -6.135066   1.000000
      4         -4.325012   1.000000
      5         -3.329227   1.000000
      6         -1.149269   1.000000
      7         -0.576621   1.000000
      8          1.848593   1.000000
      9          7.266387   0.000000
     10         11.007312   0.000000
     11         12.543607   0.000000
     12         15.136924   0.000000
 
  0.1276756E-14  0.4285714E+00  0.4000000E+00  0.2857143E-01
      1        -11.448489   1.000000
      2         -9.166913   1.000000
      3         -6.789866   1.000000
      4         -5.094867   1.000000
      5         -4.692890   1.000000
      6         -3.122004   1.000000
      7          0.182705   1.000000
      8          2.765678   1.000000
      9          6.430319   0.000000
     10          9.190737   0.000000
     11         15.642021   0.000000
     12         15.854797   0.000000
 
  0.2500000E+00  0.4285714E+00  0.4000000E+00  0.2857143E-01
      1        -11.077460   1.000000
      2         -9.080992   1.000000
      3         -8.063687   1.000000
      4         -6.116472   1.000000
      5         -3.360630   1.000000
      6         -1.925882   1.000000
      7          0.420619   1.000000
      8          2.636656   1.000000
      9          6.254585   0.000000
     10          8.491755   0.000000
     11         13.018021   0.000000
     12         14.371888   0.000000
 
  0.5000000E+00  0.4285714E+00  0.4000000E+00  0.2857143E-01
      1        -10.198170   1.000000
      2        -10.088142   1.000000
      3         -7.630097   1.000000
      4         -7.540671   1.000000
      5         -1.700363   1.000000
      6         -1.697825   1.000000
      7          1.441294   1.000000
      8          1.919683   1.000000
      9          6.441659   0.000000
     10          6.823783   0.000000
     11         12.117845   0.000000
     12         12.118410   0.000000
 
 -0.2500000E+00  0.4285714E+00  0.4000000E+00  0.2857143E-01
      1        -11.149538   1.000000
      2         -9.074014   1.000000
      3         -8.015347   1.000000
      4         -6.023179   1.000000
      5         -3.396004   1.000000
      6         -1.950053   1.000000
      7          0.794639   1.000000
      8          2.563978   1.000000
      9          5.970478   0.000000
     10          7.904583   0.000000
     11         12.894731   0.000000
     12         14.236066   0.000000
