PROCAR lm decomposed
# of k-points:   30         # of bands:   16         # of ions:    2

 k-point     1 :    0.00000000 0.00000000 0.00000000     weight = 0.00312500

band     1 # energy   -1.99636070 # occ.  1.00000000
 
ion      s     py     pz     px    dxy    dyz    dz2    dxz  x2-y2    tot
    1  0.419  0.000  0.000  0.000  0.000  0.000  0.000  0.000  0.000  0.419
    2  0.419  0.000  0.000  0.000  0.000  0.000  0.000  0.000  0.000  0.419
tot    0.838  0.000  0.000  0.000  0.000  0.000  0.000  0.000  0.000  0.838
 
band     2 # energy    1.98193567 # occ.  1.00000000
 
ion      s     py     pz     px    dxy    dyz    dz2    dxz  x2-y2    tot
    1  0.092  0.000  0.000  0.000  0.000  0.000  0.373  0.000  0.000  0.465
    2  0.092  0.000  0.000  0.000  0.000  0.000  0.373  0.000  0.000  0.465
tot    0.185  0.000  0.000  0.000  0.000  0.000  0.746  0.000  0.000  0.931
 
band     3 # energy    5.26519251 # occ.  1.00000000
 
ion      s     py     pz     px    dxy    dyz    dz2    dxz  x2-y2    tot
    1  0.000  0.001  0.000  0.000  0.121  0.000  0.000  0.000  0.363  0.485
    2  0.000  0.001  0.000  0.000  0.121  0.000  0.000  0.000  0.363  0.485
tot    0.000  0.002  0.000  0.001  0.242  0.000  0.000  0.000  0.725  0.969
 
band     4 # energy    5.26519352 # occ.  1.00000000
 
ion      s     py     pz     px    dxy    dyz    dz2    dxz  x2-y2    tot
    1  0.000  0.000  0.000  0.001  0.363  0.000  0.000  0.000  0.121  0.485
    2  0.000  0.000  0.000  0.001  0.363  0.000  0.000  0.000  0.121  0.485
tot    0.000  0.001  0.000  0.002  0.725  0.000  0.000  0.000  0.242  0.969
 
band     5 # energy    5.39352573 # occ.  1.00000000
 
ion      s     py     pz     px    dxy    dyz    dz2    dxz  x2-y2    tot
    1  0.000  0.000  0.000  0.000  0.000  0.000  0.490  0.000  0.000  0.490
    2  0.000  0.000  0.000  0.000  0.000  0.000  0.490  0.000  0.000  0.490
tot    0.000  0.000  0.000  0.000  0.000  0.000  0.980  0.000  0.000  0.980
 
band     6 # energy    5.73247177 # occ.  1.00000000
 
ion      s     py     pz     px    dxy    dyz    dz2    dxz  x2-y2    tot
    1  0.000  0.001  0.000  0.000  0.122  0.000  0.000  0.000  0.366  0.489
    2  0.000  0.001  0.000  0.000  0.122  0.000  0.000  0.000  0.366  0.489
tot    0.000  0.002  0.000  0.001  0.243  0.000  0.000  0.000  0.733  0.979
 
band     7 # energy    5.73247273 # occ.  1.00000000
 
ion      s     py     pz     px    dxy    dyz    dz2    dxz  x2-y2    tot
    1  0.000  0.000  0.000  0.001  0.366  0.000  0.000  0.000  0.122  0.489
    2  0.000  0.000  0.000  0.001  0.366  0.000  0.000  0.000  0.122  0.489
tot    0.000  0.001  0.000  0.002  0.733  0.000  0.000  0.000  0.243  0.979
 
band     8 # energy    6.06122547 # occ.  1.00000000
 
ion      s     py     pz     px    dxy    dyz    dz2    dxz  x2-y2    tot
    1  0.000  0.000  0.000  0.000  0.000  0.123  0.000  0.369  0.000  0.492
    2  0.000  0.000  0.000  0.000  0.000  0.123  0.000  0.369  0.000  0.492
tot    0.000  0.000  0.000  0.000  0.000  0.246  0.000  0.738  0.000  0.984
 
band     9 # energy    6.06122581 # occ.  1.00000000
 
ion      s     py     pz     px    dxy    dyz    dz2    dxz  x2-y2    tot
    1  0.000  0.000  0.000  0.000  0.000  0.369  0.000  0.123  0.000  0.492
    2  0.000  0.000  0.000  0.000  0.000  0.369  0.000  0.123  0.000  0.492
tot    0.000  0.000  0.000  0.000  0.000  0.738  0.000  0.246  0.000  0.984
 
band    10 # energy    7.48150779 # occ.  0.00000000
 
ion      s     py     pz     px    dxy    dyz    dz2    dxz  x2-y2    tot
    1  0.000  0.000  0.408  0.000  0.000  0.000  0.000  0.000  0.000  0.408
    2  0.000  0.000  0.408  0.000  0.000  0.000  0.000  0.000  0.000  0.408
tot    0.000  0.000  0.815  0.000  0.000  0.000  0.000  0.000  0.000  0.815
 
band    11 # energy    7.62217829 # occ.  0.00000000
 
ion      s     py     pz     px    dxy    dyz    dz2    dxz  x2-y2    tot
    1  0.000  0.000  0.000  0.000  0.000  0.123  0.000  0.368  0.000  0.490
    2  0.000  0.000  0.000  0.000  0.000  0.123  0.000  0.368  0.000  0.490
tot    0.000  0.000  0.000  0.000  0.000  0.245  0.000  0.736  0.000  0.981
 
band    12 # energy    7.62217892 # occ.  0.00000000
 
ion      s     py     pz     px    dxy    dyz    dz2    dxz  x2-y2    tot
    1  0.000  0.000  0.000  0.000  0.000  0.368  0.000  0.123  0.000  0.490
    2  0.000  0.000  0.000  0.000  0.000  0.368  0.000  0.123  0.000  0.490
tot    0.000  0.000  0.000  0.000  0.000  0.736  0.000  0.245  0.000  0.981
 
band    13 # energy   15.73000589 # occ.  0.00000000
 
ion      s     py     pz     px    dxy    dyz    dz2    dxz  x2-y2    tot
    1  0.218  0.000  0.000  0.000  0.000  0.000  0.276  0.000  0.000  0.494
    2  0.218  0.000  0.000  0.000  0.000  0.000  0.276  0.000  0.000  0.494
tot    0.435  0.000  0.000  0.000  0.000  0.000  0.552  0.000  0.000  0.987
 
band    14 # energy   28.84400682 # occ.  0.00000000
 
ion      s     py     pz     px    dxy    dyz    dz2    dxz  x2-y2    tot
    1  0.008  0.000  0.000  0.000  0.000  0.000  0.031  0.000  0.000  0.039
    2  0.008  0.000  0.000  0.000  0.000  0.000  0.031  0.000  0.000  0.039
tot    0.015  0.000  0.000  0.000  0.000  0.000  0.063  0.000  0.000  0.078
 
band    15 # energy   32.52256997 # occ.  0.00000000
 
ion      s     py     pz     px    dxy    dyz    dz2    dxz  x2-y2    tot
    1  0.019  0.001  0.000  0.001  0.000  0.000  0.085  0.000  0.001  0.107
    2  0.019  0.001  0.000  0.001  0.000  0.000  0.085  0.000  0.000  0.106
tot    0.038  0.001  0.000  0.001  0.001  0.000  0.170  0.000  0.001  0.213
 
band    16 # energy   33.22591693 # occ.  0.00000000
 
ion      s     py     pz     px    dxy    dyz    dz2    dxz  x2-y2    tot
    1  0.000  0.036  0.003  0.147  0.094  0.000  0.000  0.000  0.035  0.315
    2  0.000  0.045  0.003  0.149  0.092  0.000  0.000  0.000  0.017  0.306
tot    0.000  0.081  0.006  0.296  0.186  0.000  0.000  0.000  0.052  0.621
 

 k-point     2 :    0.12500000 0.00000000 0.00000000     weight = 0.01875000

band     1 # energy   -1.42412827 # occ.  1.00000000
 
ion      s     py     pz     px    dxy    dyz    dz2    dxz  x2-y2    tot
    1  0.396  0.006  0.000  0.017  0.001  0.000  0.000  0.000  0.000  0.420
    2  0.396  0.006  0.000  0.017  0.001  0.000  0.000  0.000  0.000  0.420
tot    0.792  0.011  0.000  0.034  0.001  0.000  0.001  0.000  0.000  0.840
 
band     2 # energy    2.33500029 # occ.  1.00000000
 
ion      s     py     pz     px    dxy    dyz    dz2    dxz  x2-y2    tot
    1  0.074  0.004  0.000  0.011  0.007  0.000  0.369  0.000  0.002  0.466
    2  0.074  0.004  0.000  0.011  0.007  0.000  0.369  0.000  0.002  0.466
tot    0.147  0.007  0.000  0.021  0.014  0.000  0.739  0.000  0.005  0.933
 
band     3 # energy    4.76899594 # occ.  1.00000000
 
ion      s     py     pz     px    dxy    dyz    dz2    dxz  x2-y2    tot
    1  0.000  0.001  0.000  0.003  0.272  0.000  0.113  0.000  0.091  0.480
    2  0.000  0.001  0.000  0.003  0.272  0.000  0.113  0.000  0.091  0.480
tot    0.000  0.002  0.000  0.006  0.544  0.000  0.226  0.000  0.181  0.960
 
band     4 # energy    5.38335703 # occ.  1.00000000
 
ion      s     py     pz     px    dxy    dyz    dz2    dxz  x2-y2    tot
    1  0.000  0.000  0.092  0.000  0.000  0.093  0.000  0.278  0.000  0.463
    2  0.000  0.000  0.092  0.000  0.000  0.093  0.000  0.278  0.000  0.463
tot    0.000  0.000  0.184  0.000  0.000  0.185  0.000  0.556  0.000  0.926
 
band     5 # energy    5.55564900 # occ.  1.00000000
 
ion      s     py     pz     px    dxy    dyz    dz2    dxz  x2-y2    tot
    1  0.003  0.001  0.000  0.002  0.328  0.000  0.043  0.000  0.109  0.487
    2  0.003  0.001  0.000  0.002  0.328  0.000  0.043  0.000  0.109  0.487
tot    0.007  0.001  0.000  0.003  0.657  0.000  0.087  0.000  0.219  0.974
 
band     6 # energy    5.58471475 # occ.  1.00000000
 
ion      s     py     pz     px    dxy    dyz    dz2    dxz  x2-y2    tot
    1  0.000  0.002  0.000  0.001  0.120  0.000  0.000  0.000  0.361  0.484
    2  0.000  0.002  0.000  0.001  0.120  0.000  0.000  0.000  0.361  0.484
tot    0.000  0.004  0.000  0.001  0.241  0.000  0.000  0.000  0.722  0.968
 
band     7 # energy    5.82044923 # occ.  1.00000000
 
ion      s     py     pz     px    dxy    dyz    dz2    dxz  x2-y2    tot
    1  0.001  0.000  0.000  0.000  0.111  0.000  0.339  0.000  0.037  0.488
    2  0.001  0.000  0.000  0.000  0.111  0.000  0.339  0.000  0.037  0.488
tot    0.001  0.000  0.000  0.001  0.223  0.000  0.677  0.000  0.074  0.977
 
band     8 # energy    5.85479892 # occ.  1.00000000
 
ion      s     py     pz     px    dxy    dyz    dz2    dxz  x2-y2    tot
    1  0.000  0.000  0.000  0.000  0.000  0.368  0.000  0.123  0.000  0.490
    2  0.000  0.000  0.000  0.000  0.000  0.368  0.000  0.123  0.000  0.490
tot    0.000  0.000  0.000  0.000  0.000  0.735  0.000  0.245  0.000  0.980
 
band     9 # energy    6.01060337 # occ.  1.00000000
 
ion      s     py     pz     px    dxy    dyz    dz2    dxz  x2-y2    tot
    1  0.000  0.002  0.000  0.001  0.122  0.000  0.000  0.000  0.365  0.489
    2  0.000  0.002  0.000  0.001  0.122  0.000  0.000  0.000  0.365  0.489
tot    0.000  0.004  0.000  0.001  0.243  0.000  0.000  0.000  0.730  0.978
 
band    10 # energy    6.12430439 # occ.  1.00000000
 
ion      s     py     pz     px    dxy    dyz    dz2    dxz  x2-y2    tot
    1  0.000  0.000  0.076  0.000  0.000  0.100  0.000  0.299  0.000  0.475
    2  0.000  0.000  0.076  0.000  0.000  0.100  0.000  0.299  0.000  0.475
tot    0.000  0.000  0.152  0.000  0.000  0.199  0.000  0.598  0.000  0.950
 
band    11 # energy    7.71713370 # occ.  0.00000000
 
ion      s     py     pz     px    dxy    dyz    dz2    dxz  x2-y2    tot
    1  0.000  0.000  0.000  0.000  0.000  0.369  0.000  0.123  0.000  0.492
    2  0.000  0.000  0.000  0.000  0.000  0.369  0.000  0.123  0.000  0.492
tot    0.000  0.000  0.000  0.000  0.000  0.738  0.000  0.246  0.000  0.985
 
band    12 # energy    9.99664643 # occ.  0.00000000
 
ion      s     py     pz     px    dxy    dyz    dz2    dxz  x2-y2    tot
    1  0.000  0.000  0.230  0.000  0.000  0.056  0.000  0.168  0.000  0.455
    2  0.000  0.000  0.230  0.000  0.000  0.056  0.000  0.168  0.000  0.455
tot    0.000  0.000  0.460  0.000  0.000  0.112  0.000  0.337  0.000  0.909
 
band    13 # energy   15.76725194 # occ.  0.00000000
 
ion      s     py     pz     px    dxy    dyz    dz2    dxz  x2-y2    tot
    1  0.207  0.005  0.000  0.014  0.001  0.000  0.263  0.000  0.000  0.488
    2  0.207  0.005  0.000  0.014  0.001  0.000  0.263  0.000  0.000  0.488
tot    0.413  0.009  0.000  0.028  0.001  0.000  0.525  0.000  0.000  0.977
 
band    14 # energy   26.19774635 # occ.  0.00000000
 
ion      s     py     pz     px    dxy    dyz    dz2    dxz  x2-y2    tot
    1  0.024  0.027  0.000  0.080  0.158  0.000  0.028  0.000  0.053  0.369
    2  0.024  0.027  0.000  0.080  0.158  0.000  0.028  0.000  0.053  0.369
tot    0.047  0.054  0.000  0.161  0.316  0.000  0.055  0.000  0.105  0.738
 
band    15 # energy   29.50993431 # occ.  0.00000000
 
ion      s     py     pz     px    dxy    dyz    dz2    dxz  x2-y2    tot
    1  0.000  0.184  0.000  0.061  0.052  0.000  0.000  0.000  0.158  0.456
    2  0.000  0.184  0.000  0.061  0.053  0.000  0.000  0.000  0.158  0.456
tot    0.000  0.369  0.000  0.123  0.105  0.000  0.000  0.000  0.316  0.912
 
band    16 # energy   29.66853699 # occ.  0.00000000
 
ion      s     py     pz     px    dxy    dyz    dz2    dxz  x2-y2    tot
    1  0.026  0.016  0.000  0.047  0.108  0.000  0.053  0.000  0.036  0.286
    2  0.026  0.016  0.000  0.047  0.107  0.000  0.052  0.000  0.036  0.285
tot    0.053  0.032  0.000  0.095  0.215  0.000  0.105  0.000  0.072  0.570
 

 k-point     3 :    0.25000000 0.00000000 0.00000000     weight = 0.01875000

band     1 # energy    0.10944640 # occ.  1.00000000
 
ion      s     py     pz     px    dxy    dyz    dz2    dxz  x2-y2    tot
    1  0.325  0.018  0.000  0.055  0.014  0.000  0.005  0.000  0.005  0.424
    2  0.325  0.018  0.000  0.055  0.014  0.000  0.005  0.000  0.005  0.424
tot    0.651  0.037  0.000  0.111  0.029  0.000  0.011  0.000  0.010  0.848
 
band     2 # energy    2.89585219 # occ.  1.00000000
 
ion      s     py     pz     px    dxy    dyz    dz2    dxz  x2-y2    tot
    1  0.031  0.006  0.000  0.017  0.098  0.000  0.287  0.000  0.033  0.471
    2  0.031  0.006  0.000  0.017  0.098  0.000  0.287  0.000  0.033  0.471
tot    0.061  0.012  0.000  0.035  0.196  0.000  0.574  0.000  0.065  0.943
 
band     3 # energy    3.96566618 # occ.  1.00000000
 
ion      s     py     pz     px    dxy    dyz    dz2    dxz  x2-y2    tot
    1  0.000  0.000  0.075  0.000  0.000  0.095  0.000  0.286  0.000  0.457
    2  0.000  0.000  0.075  0.000  0.000  0.095  0.000  0.286  0.000  0.457
tot    0.000  0.000  0.150  0.000  0.000  0.191  0.000  0.573  0.000  0.914
 
band     4 # energy    4.26892441 # occ.  1.00000000
 
ion      s     py     pz     px    dxy    dyz    dz2    dxz  x2-y2    tot
    1  0.000  0.009  0.000  0.028  0.234  0.000  0.119  0.000  0.078  0.468
    2  0.000  0.009  0.000  0.028  0.234  0.000  0.119  0.000  0.078  0.468
tot    0.001  0.018  0.000  0.055  0.469  0.000  0.237  0.000  0.156  0.937
 
band     5 # energy    5.34924215 # occ.  1.00000000
 
ion      s     py     pz     px    dxy    dyz    dz2    dxz  x2-y2    tot
    1  0.014  0.002  0.000  0.006  0.260  0.000  0.114  0.000  0.087  0.482
    2  0.014  0.002  0.000  0.006  0.260  0.000  0.114  0.000  0.087  0.482
tot    0.028  0.004  0.000  0.012  0.520  0.000  0.227  0.000  0.173  0.964
 
band     6 # energy    5.43831198 # occ.  1.00000000
 
ion      s     py     pz     px    dxy    dyz    dz2    dxz  x2-y2    tot
    1  0.000  0.000  0.000  0.000  0.000  0.366  0.000  0.122  0.000  0.488
    2  0.000  0.000  0.000  0.000  0.000  0.366  0.000  0.122  0.000  0.488
tot    0.000  0.000  0.000  0.000  0.000  0.732  0.000  0.244  0.000  0.976
 
band     7 # energy    5.78101079 # occ.  1.00000000
 
ion      s     py     pz     px    dxy    dyz    dz2    dxz  x2-y2    tot
    1  0.000  0.000  0.045  0.000  0.000  0.109  0.000  0.327  0.000  0.481
    2  0.000  0.000  0.045  0.000  0.000  0.109  0.000  0.327  0.000  0.481
tot    0.000  0.000  0.090  0.000  0.000  0.218  0.000  0.654  0.000  0.963
 
band     8 # energy    6.41826306 # occ.  1.00000000
 
ion      s     py     pz     px    dxy    dyz    dz2    dxz  x2-y2    tot
    1  0.000  0.003  0.000  0.001  0.120  0.000  0.000  0.000  0.361  0.485
    2  0.000  0.003  0.000  0.001  0.120  0.000  0.000  0.000  0.361  0.485
tot    0.000  0.006  0.000  0.002  0.241  0.000  0.000  0.000  0.722  0.970
 
band     9 # energy    6.53833050 # occ.  1.00000000
 
ion      s     py     pz     px    dxy    dyz    dz2    dxz  x2-y2    tot
    1  0.005  0.002  0.000  0.006  0.093  0.000  0.351  0.000  0.031  0.487
    2  0.005  0.002  0.000  0.006  0.093  0.000  0.351  0.000  0.031  0.487
tot    0.011  0.004  0.000  0.011  0.185  0.000  0.702  0.000  0.062  0.974
 
band    10 # energy    6.72585569 # occ.  0.92706813
 
ion      s     py     pz     px    dxy    dyz    dz2    dxz  x2-y2    tot
    1  0.000  0.004  0.000  0.001  0.121  0.000  0.000  0.000  0.364  0.490
    2  0.000  0.004  0.000  0.001  0.121  0.000  0.000  0.000  0.364  0.490
tot    0.000  0.007  0.000  0.002  0.243  0.000  0.000  0.000  0.728  0.980
 
band    11 # energy    7.86831310 # occ.  0.00000000
 
ion      s     py     pz     px    dxy    dyz    dz2    dxz  x2-y2    tot
    1  0.000  0.000  0.000  0.000  0.000  0.371  0.000  0.124  0.000  0.495
    2  0.000  0.000  0.000  0.000  0.000  0.371  0.000  0.124  0.000  0.495
tot    0.000  0.000  0.000  0.000  0.000  0.742  0.000  0.247  0.000  0.989
 
band    12 # energy   12.83604484 # occ.  0.00000000
 
ion      s     py     pz     px    dxy    dyz    dz2    dxz  x2-y2    tot
    1  0.000  0.000  0.254  0.000  0.000  0.052  0.000  0.156  0.000  0.461
    2  0.000  0.000  0.254  0.000  0.000  0.052  0.000  0.156  0.000  0.461
tot    0.000  0.000  0.508  0.000  0.000  0.104  0.000  0.311  0.000  0.922
 
band    13 # energy   15.90655289 # occ.  0.00000000
 
ion      s     py     pz     px    dxy    dyz    dz2    dxz  x2-y2    tot
    1  0.150  0.025  0.000  0.074  0.000  0.000  0.225  0.000  0.000  0.474
    2  0.150  0.025  0.000  0.074  0.000  0.000  0.225  0.000  0.000  0.474
tot    0.299  0.050  0.000  0.149  0.001  0.000  0.450  0.000  0.000  0.948
 
band    14 # energy   20.95704360 # occ.  0.00000000
 
ion      s     py     pz     px    dxy    dyz    dz2    dxz  x2-y2    tot
    1  0.103  0.033  0.000  0.098  0.146  0.000  0.018  0.000  0.049  0.446
    2  0.103  0.033  0.000  0.098  0.146  0.000  0.018  0.000  0.049  0.446
tot    0.206  0.066  0.000  0.197  0.291  0.000  0.037  0.000  0.097  0.893
 
band    15 # energy   26.08060684 # occ.  0.00000000
 
ion      s     py     pz     px    dxy    dyz    dz2    dxz  x2-y2    tot
    1  0.000  0.219  0.000  0.073  0.029  0.000  0.000  0.000  0.088  0.409
    2  0.000  0.219  0.000  0.073  0.029  0.000  0.000  0.000  0.088  0.409
tot    0.000  0.437  0.000  0.146  0.059  0.000  0.000  0.000  0.177  0.819
 
band    16 # energy   28.09997747 # occ.  0.00000000
 
ion      s     py     pz     px    dxy    dyz    dz2    dxz  x2-y2    tot
    1  0.000  0.000  0.066  0.000  0.000  0.071  0.000  0.212  0.000  0.349
    2  0.000  0.000  0.066  0.000  0.000  0.071  0.000  0.212  0.000  0.349
tot    0.000  0.000  0.132  0.000  0.000  0.142  0.000  0.425  0.000  0.699
 

 k-point     4 :    0.37500000 0.00000000 0.00000000     weight = 0.01875000

band     1 # energy    1.79397541 # occ.  1.00000000
 
ion      s     py     pz     px    dxy    dyz    dz2    dxz  x2-y2    tot
    1  0.187  0.020  0.000  0.059  0.113  0.000  0.027  0.000  0.038  0.442
    2  0.187  0.020  0.000  0.059  0.113  0.000  0.027  0.000  0.038  0.442
tot    0.374  0.039  0.000  0.118  0.226  0.000  0.053  0.000  0.075  0.885
 
band     2 # energy    2.70901870 # occ.  1.00000000
 
ion      s     py     pz     px    dxy    dyz    dz2    dxz  x2-y2    tot
    1  0.023  0.001  0.000  0.003  0.232  0.000  0.137  0.000  0.077  0.472
    2  0.023  0.001  0.000  0.003  0.232  0.000  0.137  0.000  0.077  0.472
tot    0.045  0.002  0.000  0.005  0.464  0.000  0.274  0.000  0.155  0.945
 
band     3 # energy    3.06446809 # occ.  1.00000000
 
ion      s     py     pz     px    dxy    dyz    dz2    dxz  x2-y2    tot
    1  0.000  0.000  0.039  0.000  0.000  0.105  0.000  0.314  0.000  0.458
    2  0.000  0.000  0.039  0.000  0.000  0.105  0.000  0.314  0.000  0.458
tot    0.000  0.000  0.078  0.000  0.000  0.210  0.000  0.629  0.000  0.916
 
band     4 # energy    4.44051239 # occ.  1.00000000
 
ion      s     py     pz     px    dxy    dyz    dz2    dxz  x2-y2    tot
    1  0.017  0.033  0.000  0.100  0.115  0.000  0.144  0.000  0.038  0.449
    2  0.017  0.033  0.000  0.100  0.115  0.000  0.144  0.000  0.038  0.449
tot    0.035  0.067  0.000  0.200  0.231  0.000  0.289  0.000  0.077  0.898
 
band     5 # energy    5.08549116 # occ.  1.00000000
 
ion      s     py     pz     px    dxy    dyz    dz2    dxz  x2-y2    tot
    1  0.000  0.000  0.000  0.000  0.000  0.366  0.000  0.122  0.000  0.487
    2  0.000  0.000  0.000  0.000  0.000  0.366  0.000  0.122  0.000  0.487
tot    0.000  0.000  0.000  0.000  0.000  0.731  0.000  0.244  0.000  0.975
 
band     6 # energy    5.50367499 # occ.  1.00000000
 
ion      s     py     pz     px    dxy    dyz    dz2    dxz  x2-y2    tot
    1  0.000  0.000  0.047  0.000  0.000  0.109  0.000  0.325  0.000  0.481
    2  0.000  0.000  0.047  0.000  0.000  0.109  0.000  0.325  0.000  0.481
tot    0.000  0.000  0.095  0.000  0.000  0.217  0.000  0.651  0.000  0.963
 
band     7 # energy    5.63121616 # occ.  1.00000000
 
ion      s     py     pz     px    dxy    dyz    dz2    dxz  x2-y2    tot
    1  0.008  0.006  0.000  0.019  0.113  0.000  0.300  0.000  0.038  0.484
    2  0.008  0.006  0.000  0.019  0.113  0.000  0.300  0.000  0.038  0.484
tot    0.016  0.013  0.000  0.038  0.226  0.000  0.600  0.000  0.075  0.968
 
band     8 # energy    7.34129655 # occ.  0.00000000
 
ion      s     py     pz     px    dxy    dyz    dz2    dxz  x2-y2    tot
    1  0.000  0.001  0.000  0.000  0.122  0.000  0.000  0.000  0.367  0.491
    2  0.000  0.001  0.000  0.000  0.122  0.000  0.000  0.000  0.367  0.491
tot    0.000  0.001  0.000  0.000  0.245  0.000  0.000  0.000  0.735  0.981
 
band     9 # energy    7.54598756 # occ.  0.00000000
 
ion      s     py     pz     px    dxy    dyz    dz2    dxz  x2-y2    tot
    1  0.000  0.003  0.000  0.001  0.122  0.000  0.000  0.000  0.367  0.493
    2  0.000  0.003  0.000  0.001  0.122  0.000  0.000  0.000  0.367  0.493
tot    0.000  0.006  0.000  0.002  0.245  0.000  0.000  0.000  0.734  0.987
 
band    10 # energy    7.86060752 # occ.  0.00000000
 
ion      s     py     pz     px    dxy    dyz    dz2    dxz  x2-y2    tot
    1  0.024  0.010  0.000  0.031  0.101  0.000  0.284  0.000  0.034  0.483
    2  0.024  0.010  0.000  0.031  0.101  0.000  0.284  0.000  0.034  0.483
tot    0.047  0.020  0.000  0.061  0.201  0.000  0.569  0.000  0.067  0.966
 
band    11 # energy    7.96104142 # occ.  0.00000000
 
ion      s     py     pz     px    dxy    dyz    dz2    dxz  x2-y2    tot
    1  0.000  0.000  0.000  0.000  0.000  0.372  0.000  0.124  0.000  0.496
    2  0.000  0.000  0.000  0.000  0.000  0.372  0.000  0.124  0.000  0.496
tot    0.000  0.000  0.000  0.000  0.000  0.744  0.000  0.248  0.000  0.992
 
band    12 # energy   14.61356107 # occ.  0.00000000
 
ion      s     py     pz     px    dxy    dyz    dz2    dxz  x2-y2    tot
    1  0.018  0.062  0.000  0.185  0.045  0.000  0.143  0.000  0.015  0.469
    2  0.018  0.062  0.000  0.185  0.045  0.000  0.143  0.000  0.015  0.469
tot    0.037  0.124  0.000  0.371  0.090  0.000  0.287  0.000  0.030  0.938
 
band    13 # energy   15.91680279 # occ.  0.00000000
 
ion      s     py     pz     px    dxy    dyz    dz2    dxz  x2-y2    tot
    1  0.000  0.000  0.265  0.000  0.000  0.051  0.000  0.152  0.000  0.468
    2  0.000  0.000  0.265  0.000  0.000  0.051  0.000  0.152  0.000  0.468
tot    0.000  0.000  0.529  0.000  0.000  0.102  0.000  0.305  0.000  0.935
 
band    14 # energy   18.18736867 # occ.  0.00000000
 
ion      s     py     pz     px    dxy    dyz    dz2    dxz  x2-y2    tot
    1  0.236  0.011  0.000  0.034  0.093  0.000  0.030  0.000  0.031  0.436
    2  0.236  0.011  0.000  0.034  0.093  0.000  0.030  0.000  0.031  0.436
tot    0.472  0.023  0.000  0.068  0.186  0.000  0.060  0.000  0.062  0.871
 
band    15 # energy   23.59657096 # occ.  0.00000000
 
ion      s     py     pz     px    dxy    dyz    dz2    dxz  x2-y2    tot
    1  0.000  0.249  0.000  0.083  0.009  0.000  0.000  0.000  0.027  0.368
    2  0.000  0.249  0.000  0.083  0.009  0.000  0.000  0.000  0.027  0.368
tot    0.000  0.499  0.000  0.166  0.018  0.000  0.000  0.000  0.054  0.737
 
band    16 # energy   23.92496224 # occ.  0.00000000
 
ion      s     py     pz     px    dxy    dyz    dz2    dxz  x2-y2    tot
    1  0.000  0.000  0.101  0.000  0.000  0.080  0.000  0.240  0.000  0.421
    2  0.000  0.000  0.101  0.000  0.000  0.080  0.000  0.240  0.000  0.421
tot    0.000  0.000  0.202  0.000  0.000  0.160  0.000  0.480  0.000  0.841
 

 k-point     5 :    0.50000000 0.00000000 0.00000000     weight = 0.00937500

band     1 # energy    2.38482050 # occ.  1.00000000
 
ion      s     py     pz     px    dxy    dyz    dz2    dxz  x2-y2    tot
    1  0.011  0.001  0.000  0.002  0.262  0.000  0.100  0.000  0.087  0.463
    2  0.011  0.001  0.000  0.002  0.262  0.000  0.100  0.000  0.087  0.463
tot    0.023  0.001  0.000  0.003  0.524  0.000  0.199  0.000  0.175  0.926
 
band     2 # energy    2.47350335 # occ.  1.00000000
 
ion      s     py     pz     px    dxy    dyz    dz2    dxz  x2-y2    tot
    1  0.111  0.009  0.000  0.027  0.210  0.000  0.041  0.000  0.070  0.469
    2  0.111  0.009  0.000  0.027  0.210  0.000  0.041  0.000  0.070  0.469
tot    0.222  0.018  0.000  0.055  0.421  0.000  0.081  0.000  0.140  0.937
 
band     3 # energy    2.75957658 # occ.  1.00000000
 
ion      s     py     pz     px    dxy    dyz    dz2    dxz  x2-y2    tot
    1  0.000  0.000  0.025  0.000  0.000  0.109  0.000  0.326  0.000  0.459
    2  0.000  0.000  0.025  0.000  0.000  0.109  0.000  0.326  0.000  0.459
tot    0.000  0.000  0.050  0.000  0.000  0.217  0.000  0.651  0.000  0.918
 
band     4 # energy    4.86832202 # occ.  1.00000000
 
ion      s     py     pz     px    dxy    dyz    dz2    dxz  x2-y2    tot
    1  0.030  0.051  0.000  0.154  0.011  0.000  0.186  0.000  0.004  0.436
    2  0.030  0.051  0.000  0.154  0.011  0.000  0.186  0.000  0.004  0.436
tot    0.059  0.103  0.000  0.308  0.022  0.000  0.372  0.000  0.007  0.871
 
band     5 # energy    4.95127694 # occ.  1.00000000
 
ion      s     py     pz     px    dxy    dyz    dz2    dxz  x2-y2    tot
    1  0.000  0.000  0.000  0.000  0.000  0.366  0.000  0.122  0.000  0.487
    2  0.000  0.000  0.000  0.000  0.000  0.366  0.000  0.122  0.000  0.487
tot    0.000  0.000  0.000  0.000  0.000  0.731  0.000  0.244  0.000  0.975
 
band     6 # energy    5.39370658 # occ.  1.00000000
 
ion      s     py     pz     px    dxy    dyz    dz2    dxz  x2-y2    tot
    1  0.000  0.000  0.049  0.000  0.000  0.108  0.000  0.324  0.000  0.481
    2  0.000  0.000  0.049  0.000  0.000  0.108  0.000  0.324  0.000  0.481
tot    0.000  0.000  0.099  0.000  0.000  0.216  0.000  0.648  0.000  0.963
 
band     7 # energy    5.85228259 # occ.  1.00000000
 
ion      s     py     pz     px    dxy    dyz    dz2    dxz  x2-y2    tot
    1  0.002  0.007  0.000  0.022  0.077  0.000  0.352  0.000  0.026  0.486
    2  0.002  0.007  0.000  0.022  0.077  0.000  0.352  0.000  0.026  0.486
tot    0.004  0.015  0.000  0.044  0.154  0.000  0.704  0.000  0.051  0.972
 
band     8 # energy    7.72922062 # occ.  0.00000000
 
ion      s     py     pz     px    dxy    dyz    dz2    dxz  x2-y2    tot
    1  0.000  0.000  0.000  0.000  0.124  0.000  0.000  0.000  0.371  0.495
    2  0.000  0.000  0.000  0.000  0.124  0.000  0.000  0.000  0.371  0.495
tot    0.000  0.000  0.000  0.000  0.248  0.000  0.000  0.000  0.743  0.990
 
band     9 # energy    7.95698873 # occ.  0.00000000
 
ion      s     py     pz     px    dxy    dyz    dz2    dxz  x2-y2    tot
    1  0.000  0.000  0.000  0.000  0.124  0.000  0.000  0.000  0.372  0.496
    2  0.000  0.000  0.000  0.000  0.124  0.000  0.000  0.000  0.372  0.496
tot    0.000  0.000  0.000  0.000  0.248  0.000  0.000  0.000  0.744  0.992
 
band    10 # energy    7.98897141 # occ.  0.00000000
 
ion      s     py     pz     px    dxy    dyz    dz2    dxz  x2-y2    tot
    1  0.000  0.000  0.000  0.000  0.000  0.372  0.000  0.124  0.000  0.496
    2  0.000  0.000  0.000  0.000  0.000  0.372  0.000  0.124  0.000  0.496
tot    0.000  0.000  0.000  0.000  0.000  0.744  0.000  0.248  0.000  0.992
 
band    11 # energy    9.60277257 # occ.  0.00000000
 
ion      s     py     pz     px    dxy    dyz    dz2    dxz  x2-y2    tot
    1  0.020  0.031  0.000  0.093  0.087  0.000  0.212  0.000  0.029  0.471
    2  0.020  0.031  0.000  0.093  0.087  0.000  0.212  0.000  0.029  0.471
tot    0.039  0.062  0.000  0.186  0.174  0.000  0.423  0.000  0.058  0.943
 
band    12 # energy   11.75741008 # occ.  0.00000000
 
ion      s     py     pz     px    dxy    dyz    dz2    dxz  x2-y2    tot
    1  0.093  0.037  0.000  0.111  0.084  0.000  0.124  0.000  0.028  0.478
    2  0.093  0.037  0.000  0.111  0.084  0.000  0.124  0.000  0.028  0.478
tot    0.186  0.074  0.000  0.222  0.168  0.000  0.249  0.000  0.056  0.955
 
band    13 # energy   18.22133388 # occ.  0.00000000
 
ion      s     py     pz     px    dxy    dyz    dz2    dxz  x2-y2    tot
    1  0.000  0.000  0.305  0.000  0.000  0.041  0.000  0.122  0.000  0.468
    2  0.000  0.000  0.305  0.000  0.000  0.041  0.000  0.122  0.000  0.468
tot    0.000  0.000  0.611  0.000  0.000  0.081  0.000  0.244  0.000  0.936
 
band    14 # energy   18.95843714 # occ.  0.00000000
 
ion      s     py     pz     px    dxy    dyz    dz2    dxz  x2-y2    tot
    1  0.141  0.043  0.000  0.130  0.073  0.000  0.003  0.000  0.024  0.414
    2  0.141  0.043  0.000  0.130  0.073  0.000  0.003  0.000  0.024  0.414
tot    0.282  0.087  0.000  0.260  0.146  0.000  0.005  0.000  0.049  0.828
 
band    15 # energy   21.28480639 # occ.  0.00000000
 
ion      s     py     pz     px    dxy    dyz    dz2    dxz  x2-y2    tot
    1  0.000  0.000  0.078  0.000  0.000  0.093  0.000  0.278  0.000  0.448
    2  0.000  0.000  0.078  0.000  0.000  0.093  0.000  0.278  0.000  0.448
tot    0.000  0.000  0.156  0.000  0.000  0.185  0.000  0.555  0.000  0.896
 
band    16 # energy   22.64426466 # occ.  0.00000000
 
ion      s     py     pz     px    dxy    dyz    dz2    dxz  x2-y2    tot
    1  0.000  0.263  0.000  0.088  0.000  0.000  0.000  0.000  0.000  0.351
    2  0.000  0.263  0.000  0.088  0.000  0.000  0.000  0.000  0.000  0.351
tot    0.000  0.526  0.000  0.175  0.000  0.000  0.000  0.000  0.000  0.701
 

 k-point     6 :    0.12500000 0.12500000 0.00000000     weight = 0.01875000

band     1 # energy   -0.35788813 # occ.  1.00000000
 
ion      s     py     pz     px    dxy    dyz    dz2    dxz  x2-y2    tot
    1  0.350  0.046  0.000  0.015  0.005  0.000  0.003  0.000  0.002  0.422
    2  0.350  0.046  0.000  0.015  0.005  0.000  0.003  0.000  0.002  0.422
tot    0.700  0.092  0.000  0.031  0.011  0.000  0.006  0.000  0.004  0.844
 
band     2 # energy    2.86329278 # occ.  1.00000000
 
ion      s     py     pz     px    dxy    dyz    dz2    dxz  x2-y2    tot
    1  0.041  0.025  0.000  0.009  0.019  0.000  0.348  0.000  0.028  0.469
    2  0.041  0.025  0.000  0.009  0.019  0.000  0.348  0.000  0.028  0.469
tot    0.083  0.050  0.000  0.017  0.038  0.000  0.696  0.000  0.055  0.939