   2   2   1   0
  0.9857073E+01  0.2434158E-09  0.2434158E-09  0.3841935E-09  0.5000000E-15
  1.000000000000000E-004
  CAR 
 unknown system                          
     35.22098432     -3.76861671  301      6.77727288      1.00000000
     -3.769  0.0000E+00  0.0000E+00  0.0000E+00  0.0000E+00
     -3.639  0.0000E+00  0.0000E+00  0.0000E+00  0.0000E+00
     -3.509  0.0000E+00  0.0000E+00  0.0000E+00  0.0000E+00
     -3.379  0.0000E+00  0.0000E+00  0.0000E+00  0.0000E+00
     -3.249  0.0000E+00  0.0000E+00  0.0000E+00  0.0000E+00
     -3.119  0.0000E+00  0.0000E+00  0.0000E+00  0.0000E+00
     -2.989  0.0000E+00  0.0000E+00  0.0000E+00  0.0000E+00
     -2.859  0.0000E+00  0.0000E+00  0.0000E+00  0.0000E+00
     -2.729  0.0000E+00  0.0000E+00  0.0000E+00  0.0000E+00
     -2.599  0.0000E+00  0.0000E+00  0.0000E+00  0.0000E+00
     -2.469  0.0000E+00  0.0000E+00  0.0000E+00  0.0000E+00
     -2.339  0.0000E+00  0.0000E+00  0.0000E+00  0.0000E+00
     -2.209  0.2159E-12  0.2160E-12  0.2806E-13  0.2807E-13
     -2.079  0.2323E-05  0.2323E-05  0.3019E-06  0.3019E-06
     -1.949  0.2163E-03  0.2163E-03  0.2842E-04  0.2842E-04
     -1.819  0.2180E-04  0.2180E-04  0.3125E-04  0.3125E-04
     -1.689  0.2419E-07  0.2420E-07  0.3125E-04  0.3125E-04
     -1.559  0.1998E-03  0.1998E-03  0.5722E-04  0.5722E-04
     -1.429  0.9193E-03  0.9194E-03  0.1767E-03  0.1767E-03
     -1.299  0.8041E-03  0.8041E-03  0.2812E-03  0.2812E-03
     -1.169  0.3004E-06  0.3004E-06  0.2813E-03  0.2813E-03
     -1.039  0.3728E-03  0.3728E-03  0.3297E-03  0.3297E-03
     -0.909  0.2497E-02  0.2497E-02  0.6542E-03  0.6542E-03
     -0.779  0.1573E-04  0.1573E-04  0.6562E-03  0.6562E-03
     -0.649  0.7092E-12  0.7090E-12  0.6563E-03  0.6563E-03
     -0.519  0.3524E-08  0.3524E-08  0.6563E-03  0.6563E-03
     -0.390  0.2877E-03  0.2877E-03  0.6936E-03  0.6936E-03
     -0.260  0.1620E-02  0.1620E-02  0.9041E-03  0.9041E-03
     -0.130  0.1643E-04  0.1643E-04  0.9063E-03  0.9063E-03
      0.000  0.1037E-02  0.1037E-02  0.1041E-02  0.1041E-02
      0.130  0.3267E-02  0.3267E-02  0.1466E-02  0.1466E-02
      0.260  0.2894E-02  0.2894E-02  0.1842E-02  0.1842E-02
      0.390  0.2817E-03  0.2817E-03  0.1878E-02  0.1878E-02
      0.520  0.2592E-02  0.2592E-02  0.2215E-02  0.2215E-02
      0.650  0.2714E-04  0.2714E-04  0.2219E-02  0.2219E-02
      0.780  0.2442E-11  0.2441E-11  0.2219E-02  0.2219E-02
      0.910  0.1396E-05  0.1396E-05  0.2219E-02  0.2219E-02
      1.040  0.1864E-02  0.1865E-02  0.2461E-02  0.2461E-02
      1.170  0.1272E-02  0.1272E-02  0.2627E-02  0.2627E-02
      1.300  0.1158E-02  0.1158E-02  0.2777E-02  0.2777E-02
      1.430  0.4676E-02  0.4676E-02  0.3385E-02  0.3385E-02
      1.560  0.3266E-02  0.3266E-02  0.3809E-02  0.3809E-02
      1.690  0.5498E-02  0.5498E-02  0.4524E-02  0.4524E-02
      1.820  0.3682E-02  0.3682E-02  0.5002E-02  0.5002E-02
      1.950  0.2424E-02  0.2424E-02  0.5317E-02  0.5317E-02
      2.080  0.9198E-02  0.9198E-02  0.6513E-02  0.6513E-02
      2.210  0.1994E-02  0.1994E-02  0.6772E-02  0.6772E-02
      2.340  0.1698E-01  0.1698E-01  0.8978E-02  0.8979E-02
      2.470  0.9384E-02  0.9384E-02  0.1020E-01  0.1020E-01
      2.600  0.5591E-02  0.5591E-02  0.1092E-01  0.1092E-01
      2.730  0.1280E-01  0.1280E-01  0.1259E-01  0.1259E-01
      2.860  0.2239E-01  0.2239E-01  0.1550E-01  0.1550E-01
      2.990  0.1922E-01  0.1922E-01  0.1800E-01  0.1800E-01
      3.120  0.6339E-02  0.6339E-02  0.1882E-01  0.1882E-01
      3.250  0.9410E-02  0.9411E-02  0.2004E-01  0.2004E-01
      3.379  0.1377E-01  0.1377E-01  0.2183E-01  0.2183E-01
      3.509  0.1383E-01  0.1383E-01  0.2363E-01  0.2363E-01
      3.639  0.8914E-02  0.8914E-02  0.2479E-01  0.2479E-01
      3.769  0.1553E-01  0.1553E-01  0.2681E-01  0.2681E-01
      3.899  0.1757E-01  0.1757E-01  0.2909E-01  0.2909E-01
      4.029  0.1855E-01  0.1855E-01  0.3150E-01  0.3150E-01
      4.159  0.1553E-01  0.1553E-01  0.3352E-01  0.3352E-01
      4.289  0.9054E-02  0.9054E-02  0.3470E-01  0.3470E-01
      4.419  0.2275E-01  0.2275E-01  0.3765E-01  0.3765E-01
      4.549  0.4793E-02  0.4793E-02  0.3827E-01  0.3827E-01
      4.679  0.5998E-02  0.5998E-02  0.3905E-01  0.3905E-01
      4.809  0.1187E-01  0.1187E-01  0.4060E-01  0.4060E-01
      4.939  0.2392E-01  0.2392E-01  0.4371E-01  0.4371E-01
      5.069  0.2626E-01  0.2626E-01  0.4712E-01  0.4712E-01
      5.199  0.1964E-01  0.1964E-01  0.4967E-01  0.4967E-01
      5.329  0.1844E-01  0.1844E-01  0.5207E-01  0.5207E-01
      5.459  0.2245E-01  0.2245E-01  0.5499E-01  0.5499E-01
      5.589  0.2485E-01  0.2485E-01  0.5822E-01  0.5822E-01
      5.719  0.1458E-01  0.1458E-01  0.6011E-01  0.6011E-01
      5.849  0.3465E-01  0.3465E-01  0.6461E-01  0.6461E-01
      5.979  0.2367E-01  0.2367E-01  0.6769E-01  0.6769E-01
      6.109  0.1293E-01  0.1293E-01  0.6937E-01  0.6937E-01
      6.239  0.1264E-01  0.1264E-01  0.7101E-01  0.7101E-01
      6.369  0.1105E-01  0.1105E-01  0.7245E-01  0.7245E-01
      6.499  0.1791E-01  0.1791E-01  0.7478E-01  0.7478E-01
      6.629  0.1187E-01  0.1187E-01  0.7632E-01  0.7632E-01
      6.759  0.2622E-01  0.2622E-01  0.7973E-01  0.7973E-01
      6.889  0.4296E-02  0.4296E-02  0.8029E-01  0.8029E-01
      7.019  0.8200E-02  0.8200E-02  0.8135E-01  0.8135E-01
      7.148  0.8400E-02  0.8400E-02  0.8245E-01  0.8245E-01
      7.278  0.6513E-02  0.6513E-02  0.8329E-01  0.8329E-01
      7.408  0.2778E-01  0.2778E-01  0.8690E-01  0.8690E-01
      7.538  0.2964E-01  0.2964E-01  0.9075E-01  0.9075E-01
      7.668  0.2680E-01  0.2680E-01  0.9424E-01  0.9424E-01
      7.798  0.3326E-01  0.3326E-01  0.9856E-01  0.9856E-01
      7.928  0.3346E-01  0.3346E-01  0.1029E+00  0.1029E+00
      8.058  0.1869E-01  0.1869E-01  0.1053E+00  0.1053E+00
      8.188  0.7018E-02  0.7018E-02  0.1063E+00  0.1063E+00
      8.318  0.4739E-03  0.4738E-03  0.1063E+00  0.1063E+00
      8.448  0.2116E-03  0.2116E-03  0.1063E+00  0.1063E+00
      8.578  0.3635E-02  0.3635E-02  0.1068E+00  0.1068E+00
      8.708  0.1105E-02  0.1105E-02  0.1070E+00  0.1070E+00
      8.838  0.2259E-02  0.2259E-02  0.1072E+00  0.1072E+00
      8.968  0.2132E-02  0.2132E-02  0.1075E+00  0.1075E+00
      9.098  0.1159E-02  0.1159E-02  0.1077E+00  0.1077E+00
      9.228  0.1037E-02  0.1037E-02  0.1078E+00  0.1078E+00
      9.358  0.6350E-03  0.6351E-03  0.1079E+00  0.1079E+00
      9.488  0.9133E-02  0.9133E-02  0.1091E+00  0.1091E+00
      9.618  0.6442E-02  0.6442E-02  0.1099E+00  0.1099E+00
      9.748  0.1074E-01  0.1074E-01  0.1113E+00  0.1113E+00
      9.878  0.1182E-02  0.1182E-02  0.1115E+00  0.1115E+00
     10.008  0.8980E-03  0.8980E-03  0.1116E+00  0.1116E+00
     10.138  0.6948E-03  0.6948E-03  0.1117E+00  0.1117E+00
     10.268  0.3992E-02  0.3992E-02  0.1122E+00  0.1122E+00
     10.398  0.2593E-02  0.2593E-02  0.1125E+00  0.1125E+00
     10.528  0.4779E-03  0.4779E-03  0.1126E+00  0.1126E+00
     10.658  0.5154E-08  0.5153E-08  0.1126E+00  0.1126E+00
     10.788  0.1884E-03  0.1884E-03  0.1126E+00  0.1126E+00
     10.917  0.3207E-02  0.3207E-02  0.1130E+00  0.1130E+00
     11.047  0.5209E-02  0.5209E-02  0.1137E+00  0.1137E+00
     11.177  0.5113E-04  0.5112E-04  0.1137E+00  0.1137E+00
     11.307  0.2262E-04  0.2262E-04  0.1137E+00  0.1137E+00
     11.437  0.1328E-02  0.1328E-02  0.1139E+00  0.1139E+00
     11.567  0.1709E-02  0.1709E-02  0.1141E+00  0.1141E+00
     11.697  0.2741E-02  0.2741E-02  0.1145E+00  0.1145E+00
     11.827  0.6747E-03  0.6747E-03  0.1146E+00  0.1146E+00
     11.957  0.1820E-02  0.1820E-02  0.1148E+00  0.1148E+00
     12.087  0.2855E-02  0.2855E-02  0.1152E+00  0.1152E+00
     12.217  0.5419E-02  0.5419E-02  0.1159E+00  0.1159E+00
     12.347  0.2571E-02  0.2571E-02  0.1162E+00  0.1162E+00
     12.477  0.3526E-03  0.3525E-03  0.1163E+00  0.1163E+00
     12.607  0.6543E-02  0.6543E-02  0.1171E+00  0.1171E+00
     12.737  0.2100E-02  0.2099E-02  0.1174E+00  0.1174E+00
     12.867  0.1387E-02  0.1387E-02  0.1176E+00  0.1176E+00
     12.997  0.6966E-02  0.6966E-02  0.1185E+00  0.1185E+00
     13.127  0.3176E-03  0.3176E-03  0.1185E+00  0.1185E+00
     13.257  0.2532E-02  0.2532E-02  0.1188E+00  0.1188E+00
     13.387  0.3349E-03  0.3348E-03  0.1189E+00  0.1189E+00
     13.517  0.1602E-08  0.1602E-08  0.1189E+00  0.1189E+00
     13.647  0.6567E-17  0.6567E-17  0.1189E+00  0.1189E+00
     13.777  0.4540E-07  0.4541E-07  0.1189E+00  0.1189E+00
     13.907  0.9039E-03  0.9039E-03  0.1190E+00  0.1190E+00
     14.037  0.1979E-02  0.1979E-02  0.1192E+00  0.1192E+00
     14.167  0.2057E-05  0.2056E-05  0.1192E+00  0.1192E+00
     14.297  0.9568E-14  0.9564E-14  0.1193E+00  0.1193E+00
     14.427  0.8822E-10  0.8827E-10  0.1193E+00  0.1193E+00
     14.556  0.7684E-04  0.7685E-04  0.1193E+00  0.1193E+00
     14.686  0.1338E-02  0.1338E-02  0.1194E+00  0.1194E+00
     14.816  0.1151E-03  0.1151E-03  0.1194E+00  0.1194E+00
     14.946  0.2694E-02  0.2694E-02  0.1198E+00  0.1198E+00
     15.076  0.1045E-03  0.1045E-03  0.1198E+00  0.1198E+00
     15.206  0.6403E-10  0.6403E-10  0.1198E+00  0.1198E+00
     15.336  0.0000E+00  0.0000E+00  0.1198E+00  0.1198E+00
     15.466  0.1040E-16  0.1041E-16  0.1198E+00  0.1198E+00
     15.596  0.2019E-07  0.2020E-07  0.1198E+00  0.1198E+00
     15.726  0.4592E-03  0.4592E-03  0.1199E+00  0.1199E+00
     15.856  0.4317E-02  0.4317E-02  0.1204E+00  0.1204E+00
     15.986  0.6406E-02  0.6406E-02  0.1213E+00  0.1213E+00
     16.116  0.5877E-02  0.5877E-02  0.1220E+00  0.1220E+00
     16.246  0.8330E-03  0.8329E-03  0.1221E+00  0.1221E+00
     16.376  0.2498E-02  0.2498E-02  0.1225E+00  0.1225E+00
     16.506  0.3332E-02  0.3332E-02  0.1229E+00  0.1229E+00
     16.636  0.1101E-01  0.1101E-01  0.1243E+00  0.1243E+00
     16.766  0.1954E-02  0.1953E-02  0.1246E+00  0.1246E+00
     16.896  0.2750E-02  0.2750E-02  0.1249E+00  0.1249E+00
     17.026  0.2617E-02  0.2617E-02  0.1253E+00  0.1253E+00
     17.156  0.6059E-04  0.6058E-04  0.1253E+00  0.1253E+00
     17.286  0.1341E-02  0.1341E-02  0.1255E+00  0.1255E+00
     17.416  0.2364E-03  0.2364E-03  0.1255E+00  0.1255E+00
     17.546  0.2608E-02  0.2608E-02  0.1258E+00  0.1258E+00
     17.676  0.4742E-02  0.4742E-02  0.1264E+00  0.1264E+00
     17.806  0.3665E-02  0.3665E-02  0.1269E+00  0.1269E+00
     17.936  0.4304E-02  0.4304E-02  0.1275E+00  0.1275E+00
     18.066  0.5871E-02  0.5871E-02  0.1282E+00  0.1282E+00
     18.196  0.3224E-02  0.3224E-02  0.1287E+00  0.1287E+00
     18.325  0.1283E-02  0.1283E-02  0.1288E+00  0.1288E+00
     18.455  0.4266E-02  0.4267E-02  0.1294E+00  0.1294E+00
     18.585  0.1576E-02  0.1575E-02  0.1296E+00  0.1296E+00
     18.715  0.7759E-02  0.7759E-02  0.1306E+00  0.1306E+00
     18.845  0.6066E-02  0.6066E-02  0.1314E+00  0.1314E+00
     18.975  0.6533E-02  0.6533E-02  0.1322E+00  0.1322E+00
     19.105  0.2048E-02  0.2048E-02  0.1325E+00  0.1325E+00
     19.235  0.1090E-01  0.1090E-01  0.1339E+00  0.1339E+00
     19.365  0.3877E-03  0.3876E-03  0.1340E+00  0.1340E+00
     19.495  0.1628E-08  0.1627E-08  0.1340E+00  0.1340E+00
     19.625  0.7834E-10  0.7836E-10  0.1340E+00  0.1340E+00
     19.755  0.1130E-03  0.1130E-03  0.1340E+00  0.1340E+00
     19.885  0.2789E-02  0.2789E-02  0.1343E+00  0.1343E+00
     20.015  0.6337E-02  0.6337E-02  0.1352E+00  0.1352E+00
     20.145  0.8570E-02  0.8570E-02  0.1363E+00  0.1363E+00
     20.275  0.5315E-02  0.5315E-02  0.1370E+00  0.1370E+00
     20.405  0.2620E-02  0.2620E-02  0.1373E+00  0.1373E+00
     20.535  0.2241E-03  0.2241E-03  0.1373E+00  0.1373E+00
     20.665  0.2429E-03  0.2429E-03  0.1374E+00  0.1374E+00
     20.795  0.5380E-02  0.5380E-02  0.1381E+00  0.1381E+00
     20.925  0.7524E-03  0.7516E-03  0.1382E+00  0.1382E+00
     21.055  0.5084E-02  0.5085E-02  0.1388E+00  0.1388E+00
     21.185  0.1526E-02  0.1526E-02  0.1390E+00  0.1390E+00
     21.315  0.1175E-02  0.1175E-02  0.1392E+00  0.1392E+00
     21.445  0.2431E-02  0.2431E-02  0.1395E+00  0.1395E+00
     21.575  0.4245E-02  0.4245E-02  0.1401E+00  0.1401E+00
     21.705  0.4246E-02  0.4246E-02  0.1406E+00  0.1406E+00
     21.835  0.3446E-03  0.3446E-03  0.1406E+00  0.1406E+00
     21.965  0.4810E-03  0.4810E-03  0.1407E+00  0.1407E+00
     22.094  0.5830E-02  0.5830E-02  0.1415E+00  0.1415E+00
     22.224  0.8179E-02  0.8179E-02  0.1425E+00  0.1425E+00
     22.354  0.7162E-02  0.7162E-02  0.1435E+00  0.1435E+00
     22.484  0.2872E-02  0.2872E-02  0.1438E+00  0.1438E+00
     22.614  0.2973E-02  0.2973E-02  0.1442E+00  0.1442E+00
     22.744  0.1641E-02  0.1642E-02  0.1444E+00  0.1444E+00
     22.874  0.2177E-02  0.2177E-02  0.1447E+00  0.1447E+00
     23.004  0.3198E-04  0.3199E-04  0.1447E+00  0.1447E+00
     23.134  0.2661E-02  0.2661E-02  0.1451E+00  0.1451E+00
     23.264  0.7377E-02  0.8037E-02  0.1460E+00  0.1461E+00
     23.394  0.6235E-02  0.8454E-02  0.1468E+00  0.1472E+00
     23.524  0.2692E-02  0.1058E-02  0.1472E+00  0.1473E+00
     23.654  0.4208E-02  0.2962E-02  0.1477E+00  0.1477E+00
     23.784  0.2749E-02  0.2748E-02  0.1481E+00  0.1481E+00
     23.914  0.5644E-03  0.5644E-03  0.1482E+00  0.1482E+00
     24.044  0.8975E-03  0.8975E-03  0.1483E+00  0.1483E+00
     24.174  0.1821E-02  0.1821E-02  0.1485E+00  0.1485E+00
     24.304  0.9285E-02  0.9285E-02  0.1497E+00  0.1497E+00
     24.434  0.7232E-02  0.7232E-02  0.1507E+00  0.1507E+00
     24.564  0.1063E-02  0.1063E-02  0.1508E+00  0.1508E+00
     24.694  0.5132E-02  0.5132E-02  0.1515E+00  0.1515E+00
     24.824  0.1647E-02  0.1650E-02  0.1517E+00  0.1517E+00
     24.954  0.5388E-02  0.5387E-02  0.1524E+00  0.1524E+00
     25.084  0.2199E-03  0.2178E-03  0.1524E+00  0.1524E+00
     25.214  0.2664E-02  0.2664E-02  0.1528E+00  0.1528E+00
     25.344  0.6233E-03  0.6241E-03  0.1528E+00  0.1528E+00
     25.474  0.1068E-02  0.1068E-02  0.1530E+00  0.1530E+00
     25.604  0.2693E-02  0.2693E-02  0.1533E+00  0.1533E+00
     25.734  0.1158E-03  0.1158E-03  0.1533E+00  0.1533E+00
     25.863  0.5043E-08  0.5016E-08  0.1533E+00  0.1533E+00
     25.993  0.4936E-03  0.4928E-03  0.1534E+00  0.1534E+00
     26.123  0.6003E-02  0.6004E-02  0.1542E+00  0.1542E+00
     26.253  0.4939E-02  0.4938E-02  0.1548E+00  0.1548E+00
     26.383  0.8291E-03  0.8296E-03  0.1549E+00  0.1549E+00
     26.513  0.3265E-02  0.3265E-02  0.1554E+00  0.1554E+00
     26.643  0.3117E-02  0.3117E-02  0.1558E+00  0.1558E+00
     26.773  0.3089E-02  0.3089E-02  0.1562E+00  0.1562E+00
     26.903  0.1867E-02  0.1867E-02  0.1564E+00  0.1564E+00
     27.033  0.1348E-02  0.1348E-02  0.1566E+00  0.1566E+00
     27.163  0.5536E-04  0.5591E-04  0.1566E+00  0.1566E+00
     27.293  0.1480E-07  0.1480E-07  0.1566E+00  0.1566E+00
     27.423  0.6659E-03  0.6659E-03  0.1567E+00  0.1567E+00
     27.553  0.2215E-02  0.2215E-02  0.1570E+00  0.1570E+00
     27.683  0.4743E-05  0.4747E-05  0.1570E+00  0.1570E+00
     27.813  0.4485E-03  0.5537E-03  0.1570E+00  0.1570E+00
     27.943  0.2426E-02  0.2324E-02  0.1573E+00  0.1573E+00
     28.073  0.3312E-03  0.3254E-03  0.1574E+00  0.1574E+00
     28.203  0.1131E-02  0.1132E-02  0.1575E+00  0.1575E+00
     28.333  0.2416E-02  0.2416E-02  0.1578E+00  0.1578E+00
     28.463  0.7859E-03  0.7845E-03  0.1579E+00  0.1579E+00
     28.593  0.2762E-02  0.2763E-02  0.1583E+00  0.1583E+00
     28.723  0.2800E-03  0.2801E-03  0.1583E+00  0.1583E+00
     28.853  0.1435E-03  0.1433E-03  0.1584E+00  0.1584E+00
     28.983  0.9691E-04  0.9714E-04  0.1584E+00  0.1584E+00
     29.113  0.1231E-07  0.1247E-07  0.1584E+00  0.1584E+00
     29.243  0.3430E-03  0.3465E-03  0.1584E+00  0.1584E+00
     29.373  0.2524E-02  0.2521E-02  0.1587E+00  0.1587E+00
     29.503  0.6231E-03  0.6215E-03  0.1588E+00  0.1588E+00
     29.632  0.1489E-02  0.1503E-02  0.1590E+00  0.1590E+00
     29.762  0.1266E-02  0.1254E-02  0.1592E+00  0.1592E+00
     29.892  0.1579E-03  0.1544E-03  0.1592E+00  0.1592E+00
     30.022  0.3959E-02  0.3960E-02  0.1597E+00  0.1597E+00
     30.152  0.2300E-03  0.2318E-03  0.1598E+00  0.1598E+00
     30.282  0.4485E-03  0.4485E-03  0.1598E+00  0.1598E+00
     30.412  0.1977E-04  0.1977E-04  0.1598E+00  0.1598E+00
     30.542  0.1482E-10  0.1482E-10  0.1598E+00  0.1598E+00
     30.672  0.0000E+00  0.0000E+00  0.1598E+00  0.1598E+00
     30.802  0.0000E+00  0.0000E+00  0.1598E+00  0.1598E+00
     30.932  0.0000E+00  0.0000E+00  0.1598E+00  0.1598E+00
     31.062  0.0000E+00  0.0000E+00  0.1598E+00  0.1598E+00
     31.192  0.0000E+00  0.0000E+00  0.1598E+00  0.1598E+00
     31.322  0.7141E-15  0.6883E-15  0.1598E+00  0.1598E+00
     31.452  0.2316E-06  0.2274E-06  0.1598E+00  0.1598E+00
     31.582  0.4101E-03  0.4092E-03  0.1599E+00  0.1599E+00
     31.712  0.5504E-03  0.5513E-03  0.1599E+00  0.1599E+00
     31.842  0.1024E-05  0.1023E-05  0.1599E+00  0.1599E+00
     31.972  0.1496E-13  0.1493E-13  0.1599E+00  0.1599E+00
     32.102  0.0000E+00  0.0000E+00  0.1599E+00  0.1599E+00
     32.232  0.2670E-19  0.1068E-18  0.1599E+00  0.1599E+00
     32.362  0.6488E-09  0.1530E-08  0.1599E+00  0.1599E+00
     32.492  0.4602E-04  0.5902E-04  0.1599E+00  0.1599E+00
     32.622  0.1938E-03  0.1811E-03  0.1600E+00  0.1600E+00
     32.752  0.6083E-06  0.3385E-06  0.1600E+00  0.1600E+00
     32.882  0.1109E-13  0.3222E-14  0.1600E+00  0.1600E+00
     33.012  0.1611E-12  0.0000E+00  0.1600E+00  0.1600E+00
     33.142  0.2045E-05  0.0000E+00  0.1600E+00  0.1600E+00
     33.272  0.2147E-03  0.6453E-10  0.1600E+00  0.1600E+00
     33.401  0.2372E-04  0.2180E-04  0.1600E+00  0.1600E+00
     33.531  0.8243E-10  0.2163E-03  0.1600E+00  0.1600E+00
     33.661  0.0000E+00  0.2323E-05  0.1600E+00  0.1600E+00
     33.791  0.0000E+00  0.2160E-12  0.1600E+00  0.1600E+00
     33.921  0.0000E+00  0.0000E+00  0.1600E+00  0.1600E+00
     34.051  0.0000E+00  0.0000E+00  0.1600E+00  0.1600E+00
     34.181  0.0000E+00  0.0000E+00  0.1600E+00  0.1600E+00
     34.311  0.0000E+00  0.0000E+00  0.1600E+00  0.1600E+00
     34.441  0.0000E+00  0.0000E+00  0.1600E+00  0.1600E+00
     34.571  0.0000E+00  0.0000E+00  0.1600E+00  0.1600E+00
     34.701  0.0000E+00  0.0000E+00  0.1600E+00  0.1600E+00
     34.831  0.0000E+00  0.0000E+00  0.1600E+00  0.1600E+00
     34.961  0.0000E+00  0.0000E+00  0.1600E+00  0.1600E+00
     35.091  0.0000E+00  0.0000E+00  0.1600E+00  0.1600E+00
     35.221  0.0000E+00  0.0000E+00  0.1600E+00  0.1600E+00
     35.22098432     -3.76861671  301      6.77727288      1.00000000
     -3.769  0.0000E+00  0.0000E+00  0.0000E+00  0.0000E+00  0.0000E+00  0.0000E+00  0.0000E+00  0.0000E+00  0.0000E+00  0.0000E+00  0.0000E+00  0.0000E+00  0.0000E+00  0.0000E+00  0.0000E+00  0.0000E+00  0.0000E+00  0.0000E+00
     -3.639  0.0000E+00  0.0000E+00  0.0000E+00  0.0000E+00  0.0000E+00  0.0000E+00  0.0000E+00  0.0000E+00  0.0000E+00  0.0000E+00  0.0000E+00  0.0000E+00  0.0000E+00  0.0000E+00  0.0000E+00  0.0000E+00  0.0000E+00  0.0000E+00
     -3.509  0.0000E+00  0.0000E+00  0.0000E+00  0.0000E+00  0.0000E+00  0.0000E+00  0.0000E+00  0.0000E+00  0.0000E+00  0.0000E+00  0.0000E+00  0.0000E+00  0.0000E+00  0.0000E+00  0.0000E+00  0.0000E+00  0.0000E+00  0.0000E+00
     -3.379  0.0000E+00  0.0000E+00  0.0000E+00  0.0000E+00  0.0000E+00  0.0000E+00  0.0000E+00  0.0000E+00  0.0000E+00  0.0000E+00  0.0000E+00  0.0000E+00  0.0000E+00  0.0000E+00  0.0000E+00  0.0000E+00  0.0000E+00  0.0000E+00
     -3.249  0.0000E+00  0.0000E+00  0.0000E+00  0.0000E+00  0.0000E+00  0.0000E+00  0.0000E+00  0.0000E+00  0.0000E+00  0.0000E+00  0.0000E+00  0.0000E+00  0.0000E+00  0.0000E+00  0.0000E+00  0.0000E+00  0.0000E+00  0.0000E+00
     -3.119  0.0000E+00  0.0000E+00  0.0000E+00  0.0000E+00  0.0000E+00  0.0000E+00  0.0000E+00  0.0000E+00  0.0000E+00  0.0000E+00  0.0000E+00  0.0000E+00  0.0000E+00  0.0000E+00  0.0000E+00  0.0000E+00  0.0000E+00  0.0000E+00
     -2.989  0.0000E+00  0.0000E+00  0.0000E+00  0.0000E+00  0.0000E+00  0.0000E+00  0.0000E+00  0.0000E+00  0.0000E+00  0.0000E+00  0.0000E+00  0.0000E+00  0.0000E+00  0.0000E+00  0.0000E+00  0.0000E+00  0.0000E+00  0.0000E+00
     -2.859  0.0000E+00  0.0000E+00  0.0000E+00  0.0000E+00  0.0000E+00  0.0000E+00  0.0000E+00  0.0000E+00  0.0000E+00  0.0000E+00  0.0000E+00  0.0000E+00  0.0000E+00  0.0000E+00  0.0000E+00  0.0000E+00  0.0000E+00  0.0000E+00
     -2.729  0.0000E+00  0.0000E+00  0.0000E+00  0.0000E+00  0.0000E+00  0.0000E+00  0.0000E+00  0.0000E+00  0.0000E+00  0.0000E+00  0.0000E+00  0.0000E+00  0.0000E+00  0.0000E+00  0.0000E+00  0.0000E+00  0.0000E+00  0.0000E+00
     -2.599  0.0000E+00  0.0000E+00  0.0000E+00  0.0000E+00  0.0000E+00  0.0000E+00  0.0000E+00  0.0000E+00  0.0000E+00  0.0000E+00  0.0000E+00  0.0000E+00  0.0000E+00  0.0000E+00  0.0000E+00  0.0000E+00  0.0000E+00  0.0000E+00
     -2.469  0.0000E+00  0.0000E+00  0.0000E+00  0.0000E+00  0.0000E+00  0.0000E+00  0.0000E+00  0.0000E+00  0.0000E+00  0.0000E+00  0.0000E+00  0.0000E+00  0.0000E+00  0.0000E+00  0.0000E+00  0.0000E+00  0.0000E+00  0.0000E+00
     -2.339  0.0000E+00  0.0000E+00  0.0000E+00  0.0000E+00  0.0000E+00  0.0000E+00  0.0000E+00  0.0000E+00  0.0000E+00  0.0000E+00  0.0000E+00  0.0000E+00  0.0000E+00  0.0000E+00  0.0000E+00  0.0000E+00  0.0000E+00  0.0000E+00
     -2.209  0.9047E-11  0.9049E-11  0.1067E-26  0.1825E-27  0.5658E-28  0.3010E-29  0.1067E-26  0.1825E-27  0.1117E-24  0.2460E-24  0.1322E-29  0.8321E-30  0.2271E-15  0.2271E-15  0.1322E-29  0.8321E-30  0.1117E-24  0.2460E-24
     -2.079  0.9732E-04  0.9733E-04  0.1148E-19  0.1963E-20  0.6087E-21  0.3237E-22  0.1148E-19  0.1963E-20  0.1202E-17  0.2646E-17  0.1423E-22  0.8950E-23  0.2443E-08  0.2443E-08  0.1423E-22  0.8950E-23  0.1202E-17  0.2646E-17
     -1.949  0.9064E-02  0.9064E-02  0.1069E-17  0.1828E-18  0.5669E-19  0.3015E-20  0.1069E-17  0.1828E-18  0.1119E-15  0.2464E-15  0.1325E-20  0.8335E-21  0.2276E-06  0.2275E-06  0.1325E-20  0.8335E-21  0.1119E-15  0.2464E-15
     -1.819  0.9134E-03  0.9134E-03  0.1077E-18  0.1842E-19  0.1621E-16  0.1620E-16  0.1077E-18  0.1842E-19  0.1128E-16  0.2483E-16  0.1335E-21  0.8399E-22  0.2293E-07  0.2293E-07  0.1335E-21  0.8399E-22  0.1128E-16  0.2483E-16
     -1.689  0.9704E-06  0.9706E-06  0.5285E-16  0.5285E-16  0.4220E-07  0.4221E-07  0.5285E-16  0.5285E-16  0.2082E-17  0.2096E-17  0.1262E-19  0.3985E-20  0.1320E-08  0.1321E-08  0.1262E-19  0.3985E-20  0.2082E-17  0.2096E-17
     -1.559  0.8014E-02  0.8014E-02  0.1074E-06  0.1074E-06  0.3493E-03  0.3493E-03  0.1074E-06  0.1074E-06  0.4124E-08  0.4124E-08  0.1045E-15  0.3299E-16  0.1093E-04  0.1093E-04  0.1045E-15  0.3299E-16  0.4124E-08  0.4124E-08
     -1.429  0.3656E-01  0.3656E-01  0.7140E-03  0.7140E-03  0.4915E-03  0.4915E-03  0.7140E-03  0.7140E-03  0.2741E-04  0.2741E-04  0.1804E-15  0.5123E-16  0.4145E-04  0.4145E-04  0.1804E-15  0.5123E-16  0.2741E-04  0.2741E-04
     -1.299  0.3185E-01  0.3185E-01  0.8993E-03  0.8993E-03  0.2253E-06  0.2253E-06  0.8993E-03  0.8993E-03  0.3452E-04  0.3452E-04  0.4202E-16  0.6097E-17  0.3284E-04  0.3284E-04  0.4202E-16  0.6097E-17  0.3452E-04  0.3452E-04
     -1.169  0.1190E-04  0.1189E-04  0.3360E-06  0.3359E-06  0.3739E-08  0.3739E-08  0.3360E-06  0.3359E-06  0.1291E-07  0.1291E-07  0.2847E-09  0.2848E-09  0.1219E-07  0.1218E-07  0.2847E-09  0.2848E-09  0.1291E-07  0.1291E-07
     -1.039  0.1408E-01  0.1409E-01  0.4037E-03  0.4037E-03  0.6279E-03  0.6279E-03  0.4037E-03  0.4037E-03  0.1760E-04  0.1760E-04  0.4781E-04  0.4782E-04  0.9303E-06  0.9306E-06  0.4781E-04  0.4782E-04  0.1760E-04  0.1760E-04
     -0.909  0.9434E-01  0.9434E-01  0.2704E-02  0.2704E-02  0.4205E-02  0.4205E-02  0.2704E-02  0.2704E-02  0.1179E-03  0.1179E-03  0.3203E-03  0.3202E-03  0.6231E-05  0.6232E-05  0.3203E-03  0.3202E-03  0.1179E-03  0.1179E-03
     -0.779  0.5943E-03  0.5943E-03  0.1703E-04  0.1703E-04  0.2649E-04  0.2649E-04  0.1703E-04  0.1703E-04  0.7427E-06  0.7427E-06  0.2018E-05  0.2017E-05  0.3925E-07  0.3926E-07  0.2018E-05  0.2017E-05  0.7427E-06  0.7427E-06
     -0.649  0.2680E-10  0.2679E-10  0.7681E-12  0.7678E-12  0.1195E-11  0.1194E-11  0.7681E-12  0.7678E-12  0.3349E-13  0.3348E-13  0.9097E-13  0.9094E-13  0.1770E-14  0.1770E-14  0.9097E-13  0.9094E-13  0.3349E-13  0.3348E-13
     -0.519  0.1234E-06  0.1234E-06  0.1075E-07  0.1075E-07  0.9215E-10  0.9218E-10  0.1075E-07  0.1075E-07  0.1275E-08  0.1275E-08  0.5043E-22  0.3845E-22  0.1112E-08  0.1112E-08  0.5043E-22  0.3845E-22  0.1275E-08  0.1275E-08
     -0.390  0.1007E-01  0.1007E-01  0.8198E-03  0.8199E-03  0.1199E-03  0.1199E-03  0.8198E-03  0.8199E-03  0.9727E-04  0.9727E-04  0.3871E-16  0.3400E-16  0.1119E-03  0.1119E-03  0.3871E-16  0.3400E-16  0.9727E-04  0.9727E-04
     -0.260  0.5656E-01  0.5655E-01  0.3588E-02  0.3588E-02  0.2678E-02  0.2678E-02  0.3588E-02  0.3588E-02  0.4257E-03  0.4257E-03  0.8435E-15  0.7503E-15  0.1006E-02  0.1006E-02  0.8435E-15  0.7503E-15  0.4257E-03  0.4257E-03
     -0.130  0.5707E-03  0.5706E-03  0.1219E-04  0.1219E-04  0.7445E-04  0.7444E-04  0.1219E-04  0.1219E-04  0.1450E-05  0.1449E-05  0.3949E-07  0.3950E-07  0.1905E-04  0.1904E-04  0.3949E-07  0.3950E-07  0.1450E-05  0.1449E-05
      0.000  0.3425E-01  0.3425E-01  0.3006E-02  0.3007E-02  0.1552E-02  0.1552E-02  0.3006E-02  0.3007E-02  0.4023E-03  0.4024E-03  0.5240E-03  0.5240E-03  0.1262E-03  0.1262E-03  0.5240E-03  0.5240E-03  0.4023E-03  0.4024E-03
      0.130  0.1071E+00  0.1071E+00  0.9577E-02  0.9577E-02  0.4964E-02  0.4965E-02  0.9577E-02  0.9577E-02  0.1741E-02  0.1741E-02  0.1125E-02  0.1125E-02  0.1134E-02  0.1134E-02  0.1125E-02  0.1125E-02  0.1741E-02  0.1741E-02
      0.260  0.9350E-01  0.9350E-01  0.3950E-02  0.3950E-02  0.1450E-01  0.1450E-01  0.3950E-02  0.3950E-02  0.5626E-03  0.5626E-03  0.1260E-02  0.1259E-02  0.2465E-02  0.2465E-02  0.1260E-02  0.1259E-02  0.5626E-03  0.5626E-03
      0.390  0.8565E-02  0.8566E-02  0.9150E-03  0.9151E-03  0.4451E-03  0.4451E-03  0.9150E-03  0.9151E-03  0.2864E-03  0.2864E-03  0.2261E-03  0.2261E-03  0.9531E-04  0.9531E-04  0.2261E-03  0.2261E-03  0.2864E-03  0.2864E-03
      0.520  0.7853E-01  0.7853E-01  0.8757E-02  0.8757E-02  0.3460E-02  0.3460E-02  0.8757E-02  0.8757E-02  0.2777E-02  0.2777E-02  0.2125E-02  0.2125E-02  0.7925E-03  0.7925E-03  0.2125E-02  0.2125E-02  0.2777E-02  0.2777E-02
      0.650  0.8223E-03  0.8222E-03  0.9171E-04  0.9170E-04  0.3624E-04  0.3623E-04  0.9171E-04  0.9170E-04  0.2908E-04  0.2908E-04  0.2225E-04  0.2225E-04  0.8299E-05  0.8298E-05  0.2225E-04  0.2225E-04  0.2908E-04  0.2908E-04
      0.780  0.7395E-10  0.7394E-10  0.8245E-11  0.8243E-11  0.3277E-11  0.3276E-11  0.8245E-11  0.8243E-11  0.2613E-11  0.2613E-11  0.2007E-11  0.2006E-11  0.7458E-12  0.7456E-12  0.2007E-11  0.2006E-11  0.2613E-11  0.2613E-11
      0.910  0.3778E-04  0.3778E-04  0.3409E-05  0.3410E-05  0.7247E-05  0.7248E-05  0.3409E-05  0.3410E-05  0.7191E-06  0.7192E-06  0.2868E-05  0.2868E-05  0.1889E-06  0.1889E-06  0.2868E-05  0.2868E-05  0.7191E-06  0.7192E-06
      1.040  0.5045E-01  0.5045E-01  0.4552E-02  0.4553E-02  0.9678E-02  0.9678E-02  0.4552E-02  0.4553E-02  0.9603E-03  0.9603E-03  0.3829E-02  0.3829E-02  0.2530E-03  0.2530E-03  0.3829E-02  0.3829E-02  0.9603E-03  0.9603E-03
      1.170  0.3373E-01  0.3373E-01  0.2490E-02  0.2490E-02  0.7183E-02  0.7183E-02  0.2490E-02  0.2490E-02  0.5252E-03  0.5252E-03  0.2094E-02  0.2094E-02  0.3011E-02  0.3012E-02  0.2094E-02  0.2094E-02  0.5252E-03  0.5252E-03
      1.300  0.2774E-01  0.2774E-01  0.2488E-02  0.2488E-02  0.5648E-02  0.5648E-02  0.2488E-02  0.2488E-02  0.1522E-02  0.1522E-02  0.2789E-02  0.2790E-02  0.2707E-02  0.2706E-02  0.2789E-02  0.2790E-02  0.1522E-02  0.1522E-02
      1.430  0.1150E+00  0.1150E+00  0.1920E-01  0.1920E-01  0.8996E-02  0.8996E-02  0.1920E-01  0.1920E-01  0.1046E-01  0.1046E-01  0.6384E-02  0.6383E-02  0.4822E-02  0.4822E-02  0.6384E-02  0.6383E-02  0.1046E-01  0.1046E-01
      1.560  0.7353E-01  0.7353E-01  0.1416E-01  0.1416E-01  0.3414E-02  0.3414E-02  0.1416E-01  0.1416E-01  0.8655E-02  0.8655E-02  0.6550E-02  0.6550E-02  0.5774E-02  0.5774E-02  0.6550E-02  0.6550E-02  0.8655E-02  0.8655E-02
      1.690  0.1228E+00  0.1228E+00  0.1476E-01  0.1476E-01  0.2312E-01  0.2312E-01  0.1476E-01  0.1476E-01  0.8109E-02  0.8109E-02  0.8086E-02  0.8086E-02  0.3004E-01  0.3004E-01  0.8086E-02  0.8086E-02  0.8109E-02  0.8109E-02
      1.820  0.6075E-01  0.6075E-01  0.1042E-01  0.1042E-01  0.1319E-02  0.1319E-02  0.1042E-01  0.1042E-01  0.2481E-01  0.2481E-01  0.1118E-01  0.1118E-01  0.9092E-02  0.9091E-02  0.1118E-01  0.1118E-01  0.2481E-01  0.2481E-01
      1.950  0.3030E-01  0.3030E-01  0.3205E-02  0.3204E-02  0.2148E-02  0.2148E-02  0.3205E-02  0.3204E-02  0.1293E-01  0.1293E-01  0.1301E-01  0.1301E-01  0.1862E-01  0.1862E-01  0.1301E-01  0.1301E-01  0.1293E-01  0.1293E-01
      2.080  0.1113E+00  0.1113E+00  0.1422E-01  0.1422E-01  0.1426E-01  0.1426E-01  0.1422E-01  0.1422E-01  0.4399E-01  0.4399E-01  0.7503E-01  0.7503E-01  0.1989E-01  0.1989E-01  0.7503E-01  0.7503E-01  0.4399E-01  0.4399E-01
      2.210  0.2394E-01  0.2394E-01  0.3656E-02  0.3655E-02  0.3190E-02  0.3190E-02  0.3656E-02  0.3655E-02  0.8855E-02  0.8855E-02  0.1660E-01  0.1660E-01  0.3892E-02  0.3892E-02  0.1660E-01  0.1660E-01  0.8855E-02  0.8855E-02
      2.340  0.1482E+00  0.1482E+00  0.1628E-01  0.1628E-01  0.2400E-01  0.2400E-01  0.1628E-01  0.1628E-01  0.8104E-01  0.8104E-01  0.1287E+00  0.1287E+00  0.1488E+00  0.1488E+00  0.1287E+00  0.1287E+00  0.8104E-01  0.8104E-01
      2.470  0.8979E-01  0.8978E-01  0.1011E-01  0.1011E-01  0.3141E-01  0.3141E-01  0.1011E-01  0.1011E-01  0.6349E-01  0.6349E-01  0.4800E-01  0.4800E-01  0.5636E-01  0.5635E-01  0.4800E-01  0.4800E-01  0.6349E-01  0.6349E-01
      2.600  0.4237E-01  0.4237E-01  0.1103E-01  0.1103E-01  0.4131E-02  0.4131E-02  0.1103E-01  0.1103E-01  0.6641E-01  0.6641E-01  0.1479E-01  0.1479E-01  0.2362E-01  0.2362E-01  0.1479E-01  0.1479E-01  0.6641E-01  0.6641E-01
      2.730  0.7187E-01  0.7187E-01  0.1440E-01  0.1440E-01  0.2678E-01  0.2678E-01  0.1440E-01  0.1440E-01  0.1001E+00  0.1002E+00  0.1098E+00  0.1098E+00  0.3104E-01  0.3104E-01  0.1098E+00  0.1098E+00  0.1001E+00  0.1002E+00