    2    2  100    2
  0.9857073E+01  0.2434158E-09  0.2434158E-09  0.3841934E-09  0.5000000E-15
  1.000000000000000E-004
  CAR 
 unknown system                          
     16     30     16
 
  0.1276756E-14  0.1276756E-14  0.1276756E-14  0.3125000E-02
      1         -1.996361       -1.996362   1.000000   1.000000
      2          1.981936        1.981932   1.000000   1.000000
      3          5.265193        5.265190   1.000000   1.000000
      4          5.265194        5.265191   1.000000   1.000000
      5          5.393526        5.393524   1.000000   1.000000
      6          5.732472        5.732470   1.000000   1.000000
      7          5.732473        5.732471   1.000000   1.000000
      8          6.061225        6.061224   1.000000   1.000000
      9          6.061226        6.061224   1.000000   1.000000
     10          7.481508        7.481509   0.000000   0.000000
     11          7.622178        7.622176   0.000000   0.000000
     12          7.622179        7.622177   0.000000   0.000000
     13         15.730006       15.730002   0.000000   0.000000
     14         28.844007       28.844094   0.000000   0.000000
     15         32.522570       32.516065   0.000000   0.000000
     16         33.225917       33.448730   0.000000   0.000000
 
  0.1250000E+00  0.1283084E-14  0.1276756E-14  0.1875000E-01
      1         -1.424128       -1.424130   1.000000   1.000000
      2          2.335000        2.334997   1.000000   1.000000
      3          4.768996        4.768994   1.000000   1.000000
      4          5.383357        5.383356   1.000000   1.000000
      5          5.555649        5.555647   1.000000   1.000000
      6          5.584715        5.584713   1.000000   1.000000
      7          5.820449        5.820447   1.000000   1.000000
      8          5.854799        5.854797   1.000000   1.000000
      9          6.010603        6.010602   1.000000   1.000000
     10          6.124304        6.124303   1.000000   1.000000
     11          7.717134        7.717132   0.000000   0.000000
     12          9.996646        9.996646   0.000000   0.000000
     13         15.767252       15.767248   0.000000   0.000000
     14         26.197746       26.197744   0.000000   0.000000
     15         29.509934       29.510016   0.000000   0.000000
     16         29.668537       29.667235   0.000000   0.000000
 
  0.2500000E+00  0.1292868E-14  0.1276756E-14  0.1875000E-01
      1          0.109446        0.109445   1.000000   1.000000
      2          2.895852        2.895850   1.000000   1.000000
      3          3.965666        3.965665   1.000000   1.000000
      4          4.268924        4.268922   1.000000   1.000000
      5          5.349242        5.349240   1.000000   1.000000
      6          5.438312        5.438311   1.000000   1.000000
      7          5.781011        5.781010   1.000000   1.000000
      8          6.418263        6.418261   1.000000   1.000000
      9          6.538330        6.538328   1.000000   1.000000
     10          6.725856        6.725854   0.927068   0.927075
     11          7.868313        7.868311   0.000000   0.000000
     12         12.836045       12.836045   0.000000   0.000000
     13         15.906553       15.906549   0.000000   0.000000
     14         20.957044       20.957042   0.000000   0.000000
     15         26.080607       26.080605   0.000000   0.000000
     16         28.099977       28.100128   0.000000   0.000000
 
  0.3750000E+00  0.1288773E-14  0.1276756E-14  0.1875000E-01
      1          1.793975        1.793974   1.000000   1.000000
      2          2.709019        2.709017   1.000000   1.000000
      3          3.064468        3.064467   1.000000   1.000000
      4          4.440512        4.440511   1.000000   1.000000
      5          5.085491        5.085490   1.000000   1.000000
      6          5.503675        5.503674   1.000000   1.000000
      7          5.631216        5.631214   1.000000   1.000000
      8          7.341297        7.341295   0.000000   0.000000
      9          7.545988        7.545986   0.000000   0.000000
     10          7.860608        7.860604   0.000000   0.000000
     11          7.961041        7.961039   0.000000   0.000000
     12         14.613561       14.613558   0.000000   0.000000
     13         15.916803       15.916804   0.000000   0.000000
     14         18.187369       18.187366   0.000000   0.000000
     15         23.596571       23.596569   0.000000   0.000000
     16         23.924962       23.924962   0.000000   0.000000
 
  0.5000000E+00  0.1250898E-14  0.1276756E-14  0.9375000E-02
      1          2.384821        2.384818   1.000000   1.000000
      2          2.473503        2.473503   1.000000   1.000000
      3          2.759577        2.759575   1.000000   1.000000
      4          4.868322        4.868321   1.000000   1.000000
      5          4.951277        4.951276   1.000000   1.000000
      6          5.393707        5.393706   1.000000   1.000000
      7          5.852283        5.852281   1.000000   1.000000
      8          7.729221        7.729219   0.000000   0.000000
      9          7.956989        7.956987   0.000000   0.000000
     10          7.988971        7.988969   0.000000   0.000000
     11          9.602773        9.602770   0.000000   0.000000
     12         11.757410       11.757407   0.000000   0.000000
     13         18.221334       18.221336   0.000000   0.000000
     14         18.958437       18.958432   0.000000   0.000000
     15         21.284806       21.284805   0.000000   0.000000
     16         22.644265       22.644263   0.000000   0.000000
 
  0.1250000E+00  0.1250000E+00  0.1276756E-14  0.1875000E-01
      1         -0.357888       -0.357889   1.000000   1.000000
      2          2.863293        2.863290   1.000000   1.000000
      3          4.244242        4.244240   1.000000   1.000000
      4          4.351512        4.351511   1.000000   1.000000
      5          5.381017        5.381015   1.000000   1.000000
      6          5.401490        5.401488   1.000000   1.000000
      7          6.007677        6.007676   1.000000   1.000000
      8          6.090787        6.090785   1.000000   1.000000
      9          6.229565        6.229563   1.000000   1.000000
     10          6.658605        6.658603   0.999605   0.999605
     11          7.796624        7.796622   0.000000   0.000000
     12         12.060052       12.060052   0.000000   0.000000
     13         15.896126       15.896122   0.000000   0.000000
     14         23.374969       23.374968   0.000000   0.000000
     15         24.249354       24.249354   0.000000   0.000000
     16         29.978524       29.978569   0.000000   0.000000
 
  0.2500000E+00  0.1250000E+00  0.1276756E-14  0.3750000E-01
      1          1.374117        1.374116   1.000000   1.000000
      2          3.109008        3.109006   1.000000   1.000000
      3          3.392319        3.392318   1.000000   1.000000
      4          3.927366        3.927364   1.000000   1.000000
      5          5.008069        5.008067   1.000000   1.000000
      6          5.476513        5.476510   1.000000   1.000000
      7          5.692668        5.692667   1.000000   1.000000
      8          6.686961        6.686959   0.994681   0.994682
      9          7.191920        7.191918   0.000000   0.000000
     10          7.770968        7.770966   0.000000   0.000000
     11          7.864141        7.864139   0.000000   0.000000
     12         14.882876       14.882877   0.000000   0.000000
     13         16.053853       16.053848   0.000000   0.000000
     14         18.913708       18.913706   0.000000   0.000000
     15         21.648797       21.648796   0.000000   0.000000
     16         26.104704       26.104698   0.000000   0.000000
 
  0.3750000E+00  0.1250000E+00  0.1276756E-14  0.3750000E-01
      1          2.541615        2.541614   1.000000   1.000000
      2          2.780104        2.780103   1.000000   1.000000
      3          2.874627        2.874626   1.000000   1.000000
      4          4.359894        4.359892   1.000000   1.000000
      5          4.879107        4.879106   1.000000   1.000000
      6          5.364287        5.364286   1.000000   1.000000
      7          5.839880        5.839878   1.000000   1.000000
      8          7.505220        7.505218   0.000000   0.000000
      9          7.773296        7.773294   0.000000   0.000000
     10          7.897333        7.897331   0.000000   0.000000
     11          9.416376        9.416374   0.000000   0.000000
     12         13.214594       13.214592   0.000000   0.000000
     13         17.918187       17.918188   0.000000   0.000000
     14         18.798042       18.798038   0.000000   0.000000
     15         20.146470       20.146468   0.000000   0.000000
     16         22.441209       22.441208   0.000000   0.000000
 
  0.2500000E+00  0.2500000E+00  0.1276756E-14  0.1875000E-01
      1          2.805599        2.805599   1.000000   1.000000
      2          3.008069        3.008068   1.000000   1.000000
      3          3.437418        3.437417   1.000000   1.000000
      4          3.459610        3.459606   1.000000   1.000000
      5          4.757798        4.757797   1.000000   1.000000
      6          5.368325        5.368324   1.000000   1.000000
      7          5.839233        5.839230   1.000000   1.000000
      8          6.992423        6.992421   0.000000   0.000000
      9          7.797823        7.797821   0.000000   0.000000
     10          7.803888        7.803886   0.000000   0.000000
     11          9.456162        9.456160   0.000000   0.000000
     12         15.809946       15.809943   0.000000   0.000000
     13         16.494208       16.494207   0.000000   0.000000
     14         17.706119       17.706120   0.000000   0.000000
     15         19.197407       19.197403   0.000000   0.000000
     16         24.691112       24.691109   0.000000   0.000000
 
  0.3750000E+00  0.2500000E+00  0.1276756E-14  0.1875000E-01
      1          2.878653        2.878651   1.000000   1.000000
      2          3.203409        3.203409   1.000000   1.000000
      3          3.226445        3.226443   1.000000   1.000000
      4          3.869620        3.869618   1.000000   1.000000
      5          4.804927        4.804926   1.000000   1.000000
      6          5.071939        5.071938   1.000000   1.000000
      7          6.093524        6.093522   1.000000   1.000000
      8          7.438498        7.438496   0.000000   0.000000
      9          7.692888        7.692886   0.000000   0.000000
     10          7.776501        7.776499   0.000000   0.000000
     11         11.576725       11.576723   0.000000   0.000000
     12         12.925237       12.925235   0.000000   0.000000
     13         15.769451       15.769449   0.000000   0.000000
     14         20.343282       20.343276   0.000000   0.000000
     15         20.362450       20.362452   0.000000   0.000000
     16         22.005448       22.005440   0.000000   0.000000
 
  0.1276756E-14  0.1276756E-14  0.2000000E+00  0.6250000E-02
      1         -1.551647       -1.551649   1.000000   1.000000
      2          1.896865        1.896861   1.000000   1.000000
      3          5.127889        5.127887   1.000000   1.000000
      4          5.127889        5.127887   1.000000   1.000000
      5          5.239594        5.239592   1.000000   1.000000
      6          5.569670        5.569668   1.000000   1.000000
      7          5.569670        5.569669   1.000000   1.000000
      8          6.293276        6.293278   1.000000   1.000000
      9          6.402578        6.402576   1.000000   1.000000
     10          6.402578        6.402576   1.000000   1.000000
     11          7.605946        7.605944   0.000000   0.000000
     12          7.605947        7.605945   0.000000   0.000000
     13         17.730539       17.730536   0.000000   0.000000
     14         28.596375       28.596372   0.000000   0.000000
     15         31.568775       31.568957   0.000000   0.000000
     16         31.610722       31.610711   0.000000   0.000000
 
  0.1250000E+00  0.1283084E-14  0.2000000E+00  0.3750000E-01
      1         -0.999386       -0.999388   1.000000   1.000000
      2          2.298709        2.298705   1.000000   1.000000
      3          4.790312        4.790311   1.000000   1.000000
      4          4.828701        4.828700   1.000000   1.000000
      5          5.273203        5.273202   1.000000   1.000000
      6          5.362043        5.362041   1.000000   1.000000
      7          5.814118        5.814117   1.000000   1.000000
      8          5.821021        5.821019   1.000000   1.000000
      9          6.324172        6.324171   1.000000   1.000000
     10          6.452748        6.452746   1.000000   1.000000
     11          7.668249        7.668247   0.000000   0.000000
     12          8.945428        8.945427   0.000000   0.000000
     13         17.948452       17.948449   0.000000   0.000000
     14         26.423180       26.423152   0.000000   0.000000
     15         29.284321       29.284105   0.000000   0.000000
     16         29.950891       29.951238   0.000000   0.000000
 
  0.2500000E+00  0.1292868E-14  0.2000000E+00  0.3750000E-01
      1          0.437183        0.437182   1.000000   1.000000
      2          2.985759        2.985756   1.000000   1.000000
      3          3.709750        3.709750   1.000000   1.000000
      4          4.366692        4.366690   1.000000   1.000000
      5          5.068381        5.068379   1.000000   1.000000
      6          5.507964        5.507962   1.000000   1.000000
      7          5.772996        5.772995   1.000000   1.000000
      8          6.475416        6.475414   1.000000   1.000000
      9          6.663491        6.663489   0.999355   0.999355
     10          6.757076        6.757074   0.716090   0.716108
     11          7.765853        7.765851   0.000000   0.000000
     12         10.840950       10.840949   0.000000   0.000000
     13         18.640747       18.640744   0.000000   0.000000
     14         21.343539       21.343538   0.000000   0.000000
     15         26.027627       26.027668   0.000000   0.000000
     16         26.662058       26.662056   0.000000   0.000000
 
  0.3750000E+00  0.1288773E-14  0.2000000E+00  0.3750000E-01
      1          1.780145        1.780144   1.000000   1.000000
      2          2.730944        2.730942   1.000000   1.000000
      3          3.338431        3.338430   1.000000   1.000000
      4          4.111113        4.111112   1.000000   1.000000
      5          5.288610        5.288608   1.000000   1.000000
      6          5.501503        5.501501   1.000000   1.000000
      7          6.229263        6.229261   1.000000   1.000000
      8          7.296512        7.296510   0.000000   0.000000
      9          7.392627        7.392626   0.000000   0.000000
     10          7.668709        7.668707   0.000000   0.000000
     11          7.857774        7.857772   0.000000   0.000000
     12         12.304877       12.304876   0.000000   0.000000
     13         16.805748       16.805747   0.000000   0.000000
     14         19.817358       19.817356   0.000000   0.000000
     15         22.573602       22.573599   0.000000   0.000000
     16         24.289314       24.289312   0.000000   0.000000
 
  0.5000000E+00  0.1250898E-14  0.2000000E+00  0.1875000E-01
      1          2.038352        2.038351   1.000000   1.000000
      2          2.479853        2.479850   1.000000   1.000000
      3          3.524610        3.524608   1.000000   1.000000
      4          3.891523        3.891522   1.000000   1.000000
      5          5.182794        5.182792   1.000000   1.000000
      6          5.803898        5.803897   1.000000   1.000000
      7          6.746101        6.746100   0.811020   0.811034
      8          7.546163        7.546162   0.000000   0.000000
      9          7.826595        7.826594   0.000000   0.000000
     10          7.940361        7.940360   0.000000   0.000000
     11          9.118556        9.118554   0.000000   0.000000
     12         11.383468       11.383465   0.000000   0.000000
     13         17.227058       17.227058   0.000000   0.000000
     14         17.458090       17.458087   0.000000   0.000000
     15         23.385631       23.385629   0.000000   0.000000
     16         23.608574       23.608571   0.000000   0.000000
 
  0.1250000E+00  0.1250000E+00  0.2000000E+00  0.3750000E-01
      1          0.013145        0.013144   1.000000   1.000000
      2          2.935861        2.935858   1.000000   1.000000
      3          3.968912        3.968911   1.000000   1.000000
      4          4.329167        4.329165   1.000000   1.000000
      5          5.154832        5.154830   1.000000   1.000000
      6          5.488305        5.488303   1.000000   1.000000
      7          5.681044        5.681042   1.000000   1.000000
      8          6.175293        6.175291   1.000000   1.000000
      9          6.597766        6.597765   1.000000   1.000000
     10          6.686030        6.686028   0.995071   0.995071
     11          7.734663        7.734661   0.000000   0.000000
     12         10.363255       10.363255   0.000000   0.000000
     13         18.451171       18.451168   0.000000   0.000000
     14         23.696236       23.696235   0.000000   0.000000
     15         24.671115       24.671115   0.000000   0.000000
     16         28.297655       28.297668   0.000000   0.000000
 
  0.2500000E+00  0.1250000E+00  0.2000000E+00  0.7500000E-01
      1          1.558497        1.558496   1.000000   1.000000
      2          3.210546        3.210544   1.000000   1.000000
      3          3.310432        3.310430   1.000000   1.000000
      4          4.076760        4.076758   1.000000   1.000000
      5          4.986145        4.986143   1.000000   1.000000
      6          5.509911        5.509909   1.000000   1.000000
      7          5.600658        5.600656   1.000000   1.000000
      8          6.696713        6.696712   0.988654   0.988655
      9          7.344991        7.344989   0.000000   0.000000
     10          7.377712        7.377710   0.000000   0.000000
     11          8.039182        8.039180   0.000000   0.000000
     12         12.130005       12.130003   0.000000   0.000000
     13         18.673188       18.673186   0.000000   0.000000
     14         19.960214       19.960211   0.000000   0.000000
     15         22.094826       22.094824   0.000000   0.000000
     16         24.382255       24.382249   0.000000   0.000000
 
  0.3750000E+00  0.1250000E+00  0.2000000E+00  0.7500000E-01
      1          2.264622        2.264621   1.000000   1.000000
      2          2.828618        2.828615   1.000000   1.000000
      3          3.461240        3.461239   1.000000   1.000000
      4          3.941104        3.941103   1.000000   1.000000
      5          4.921247        4.921246   1.000000   1.000000
      6          5.792886        5.792884   1.000000   1.000000
      7          5.978206        5.978204   1.000000   1.000000
      8          7.361545        7.361543   0.000000   0.000000
      9          7.581563        7.581561   0.000000   0.000000
     10          7.892730        7.892728   0.000000   0.000000
     11          9.406489        9.406486   0.000000   0.000000
     12         12.575311       12.575309   0.000000   0.000000
     13         16.548372       16.548371   0.000000   0.000000
     14         19.129720       19.129718   0.000000   0.000000
     15         20.725923       20.725921   0.000000   0.000000
     16         23.214810       23.214805   0.000000   0.000000
 
  0.2500000E+00  0.2500000E+00  0.2000000E+00  0.3750000E-01
      1          2.811596        2.811596   1.000000   1.000000
      2          2.942205        2.942204   1.000000   1.000000
      3          3.537533        3.537531   1.000000   1.000000
      4          3.757755        3.757753   1.000000   1.000000
      5          4.963886        4.963885   1.000000   1.000000
      6          5.103519        5.103518   1.000000   1.000000
      7          5.800130        5.800128   1.000000   1.000000
      8          7.005709        7.005707   0.000000   0.000000
      9          7.402097        7.402095   0.000000   0.000000
     10          7.918930        7.918929   0.000000   0.000000
     11          9.661614        9.661612   0.000000   0.000000
     12         13.923872       13.923870   0.000000   0.000000
     13         16.943631       16.943629   0.000000   0.000000
     14         17.971736       17.971743   0.000000   0.000000
     15         20.966524       20.966578   0.000000   0.000000
     16         23.518039       23.290448   0.000000   0.000000
 
  0.3750000E+00  0.2500000E+00  0.2000000E+00  0.3750000E-01
      1          2.829813        2.829812   1.000000   1.000000
      2          3.388238        3.388236   1.000000   1.000000
      3          3.531253        3.531253   1.000000   1.000000
      4          3.685344        3.685343   1.000000   1.000000
      5          4.764004        4.764003   1.000000   1.000000
      6          5.080298        5.080297   1.000000   1.000000
      7          6.083119        6.083117   1.000000   1.000000
      8          7.298637        7.298635   0.000000   0.000000
      9          7.470243        7.470241   0.000000   0.000000
     10          7.762776        7.762774   0.000000   0.000000
     11         11.945993       11.945990   0.000000   0.000000
     12         12.942947       12.942945   0.000000   0.000000
     13         15.958734       15.958733   0.000000   0.000000
     14         18.384579       18.384575   0.000000   0.000000
     15         19.156712       19.156713   0.000000   0.000000
     16         22.230954       22.230954   0.000000   0.000000
 
  0.1276756E-14  0.1276756E-14  0.4000000E+00  0.6250000E-02
      1         -0.328324       -0.328326   1.000000   1.000000
      2          1.167914        1.167911   1.000000   1.000000
      3          4.920378        4.920377   1.000000   1.000000
      4          4.984434        4.984435   1.000000   1.000000
      5          5.077437        5.077435   1.000000   1.000000
      6          5.077437        5.077435   1.000000   1.000000
      7          5.263374        5.263372   1.000000   1.000000
      8          5.263374        5.263373   1.000000   1.000000
      9          6.979988        6.979986   0.000000   0.000000
     10          6.979988        6.979986   0.000000   0.000000
     11          7.425081        7.425079   0.000000   0.000000
     12          7.425081        7.425079   0.000000   0.000000
     13         21.846030       21.846027   0.000000   0.000000
     14         26.362446       26.362443   0.000000   0.000000
     15         29.588329       29.588327   0.000000   0.000000
     16         30.220855       30.220853   0.000000   0.000000
 
  0.1250000E+00  0.1283084E-14  0.4000000E+00  0.3750000E-01
      1          0.170046        0.170044   1.000000   1.000000
      2          1.621256        1.621253   1.000000   1.000000
      3          4.348082        4.348082   1.000000   1.000000
      4          4.672544        4.672542   1.000000   1.000000
      5          5.013323        5.013322   1.000000   1.000000
      6          5.313631        5.313629   1.000000   1.000000
      7          5.412487        5.412486   1.000000   1.000000
      8          5.514955        5.514953   1.000000   1.000000
      9          6.934190        6.934189   0.000005   0.000005
     10          7.100116        7.100114   0.000000   0.000000
     11          7.425368        7.425366   0.000000   0.000000
     12          7.850792        7.850790   0.000000   0.000000
     13         22.165664       22.165661   0.000000   0.000000
     14         26.540518       26.540516   0.000000   0.000000
     15         27.449094       27.449094   0.000000   0.000000
     16         28.505703       28.505810   0.000000   0.000000
 
  0.2500000E+00  0.1292868E-14  0.4000000E+00  0.3750000E-01
      1          1.318175        1.318173   1.000000   1.000000
      2          2.425829        2.425827   1.000000   1.000000
      3          3.816167        3.816165   1.000000   1.000000
      4          4.348747        4.348745   1.000000   1.000000
      5          4.942056        4.942054   1.000000   1.000000
      6          5.418468        5.418466   1.000000   1.000000
      7          5.744218        5.744217   1.000000   1.000000
      8          6.126397        6.126395   1.000000   1.000000
      9          7.022721        7.022720   0.000000   0.000000
     10          7.445378        7.445376   0.000000   0.000000
     11          7.458626        7.458624   0.000000   0.000000
     12          8.735801        8.735800   0.000000   0.000000
     13         22.088136       22.088135   0.000000   0.000000
     14         23.086944       23.086942   0.000000   0.000000
     15         24.163648       24.163645   0.000000   0.000000
     16         27.848786       27.843752   0.000000   0.000000
 
  0.3750000E+00  0.1288773E-14  0.4000000E+00  0.3750000E-01
      1          1.965194        1.965193   1.000000   1.000000
      2          2.425954        2.425952   1.000000   1.000000
      3          3.655510        3.655509   1.000000   1.000000
      4          4.073701        4.073699   1.000000   1.000000
      5          5.805495        5.805494   1.000000   1.000000
      6          5.851101        5.851100   1.000000   1.000000
      7          6.611334        6.611332   0.999999   0.999999
      8          6.618926        6.618925   0.999996   0.999996
      9          7.522175        7.522173   0.000000   0.000000
     10          7.690826        7.690825   0.000000   0.000000
     11          7.915874        7.915873   0.000000   0.000000
     12          9.719698        9.719696   0.000000   0.000000
     13         17.785871       17.785870   0.000000   0.000000
     14         19.176123       19.176121   0.000000   0.000000
     15         25.158546       25.158620   0.000000   0.000000
     16         26.168553       26.168551   0.000000   0.000000
 
  0.5000000E+00  0.1250898E-14  0.4000000E+00  0.1875000E-01
      1          1.983369        1.983368   1.000000   1.000000
      2          2.331925        2.331923   1.000000   1.000000
      3          3.594351        3.594350   1.000000   1.000000
      4          3.917344        3.917342   1.000000   1.000000
      5          5.828634        5.828633   1.000000   1.000000
      6          6.351033        6.351032   1.000000   1.000000
      7          6.727089        6.727087   0.922111   0.922118
      8          7.766991        7.766989   0.000000   0.000000
      9          7.843883        7.843881   0.000000   0.000000
     10          7.896614        7.896613   0.000000   0.000000
     11          8.560291        8.560288   0.000000   0.000000
     12         10.220331       10.220328   0.000000   0.000000
     13         16.275691       16.275690   0.000000   0.000000
     14         16.310278       16.310276   0.000000   0.000000
     15         25.360853       25.360849   0.000000   0.000000
     16         26.970594       26.970754   0.000000   0.000000
 
  0.1250000E+00  0.1250000E+00  0.4000000E+00  0.3750000E-01
      1          1.026799        1.026797   1.000000   1.000000
      2          2.321362        2.321360   1.000000   1.000000
      3          3.898167        3.898166   1.000000   1.000000
      4          4.415427        4.415425   1.000000   1.000000
      5          4.813164        4.813162   1.000000   1.000000
      6          5.215095        5.215094   1.000000   1.000000
      7          5.687467        5.687465   1.000000   1.000000
      8          5.959691        5.959689   1.000000   1.000000
      9          7.051557        7.051555   0.000000   0.000000
     10          7.270060        7.270058   0.000000   0.000000
     11          7.520981        7.520979   0.000000   0.000000
     12          8.499540        8.499539   0.000000   0.000000
     13         22.768764       22.768761   0.000000   0.000000
     14         24.590785       24.590785   0.000000   0.000000
     15         25.541715       25.541714   0.000000   0.000000
     16         26.785219       26.785228   0.000000   0.000000
 
  0.2500000E+00  0.1250000E+00  0.4000000E+00  0.7500000E-01
      1          2.050269        2.050268   1.000000   1.000000
      2          2.689847        2.689845   1.000000   1.000000
      3          3.815209        3.815207   1.000000   1.000000
      4          4.296047        4.296045   1.000000   1.000000
      5          4.863936        4.863934   1.000000   1.000000
      6          5.237169        5.237168   1.000000   1.000000
      7          5.853914        5.853912   1.000000   1.000000
      8          6.406713        6.406712   1.000000   1.000000
      9          7.484567        7.484565   0.000000   0.000000
     10          7.700831        7.700829   0.000000   0.000000
     11          8.139013        8.139012   0.000000   0.000000
     12          9.570042        9.570041   0.000000   0.000000
     13         20.049985       20.049984   0.000000   0.000000
     14         21.553318       21.553316   0.000000   0.000000
     15         23.280172       23.280169   0.000000   0.000000
     16         24.886988       24.886821   0.000000   0.000000
 
  0.3750000E+00  0.1250000E+00  0.4000000E+00  0.7500000E-01
      1          2.268393        2.268392   1.000000   1.000000
      2          2.633515        2.633513   1.000000   1.000000
      3          3.693255        3.693254   1.000000   1.000000
      4          4.163194        4.163192   1.000000   1.000000
      5          5.108862        5.108861   1.000000   1.000000
      6          5.937007        5.937005   1.000000   1.000000