 vasp.6.5.1 10Mar25 (build May 31 2025 23:02:25) complex                        
  
 executed on             LinuxIFC date 2026.01.18  23:07:48
 running    4 mpi-ranks, with    1 threads/rank, on    1 nodes
 distrk:  each k-point on    4 cores,    1 groups
 distr:  one band on NCORE=   1 cores,    4 groups


--------------------------------------------------------------------------------------------------------


 INCAR:
   ENCUT = 520.000000
   KSPACING = 0.400000
   SIGMA = 0.050000
   EDIFF = 1.00e-05
   EDIFFG = -3.00e-02
   ALGO = fast
   GGA = PE
   PREC = accurate
   EFERMI = midgap
   IBRION = 2
   ISIF = 3
   ISMEAR = 0
   LORBIT = 11
   NSW = 100
   IVDW = 0
   LASPH = .TRUE.
   GGA_COMPAT = .FALSE.
   ISPIN = 2
   MAGMOM = 2*4.0000

 POTCAR:    PAW_PBE Fe 06Sep2000                  
 POTCAR:    PAW_PBE Fe 06Sep2000                  
   SHA256 =  cd5a22d9368cc8b5cc476bea79732366149640da08ac9009b0e1b7fc627eea28 Fe/POTCAR             
   COPYR  = (c) Copyright 06Sep2000 Georg Kresse                                                    
   COPYR  = This file is part of the software VASP. Any use, copying, and all other rights are regul
   COPYR  = If you do not have a valid VASP license, you may not use, copy or distribute this file. 
   VRHFIN =Fe:  d7 s1                                                                               
   LEXCH  = PE                                                                                      
   EATOM  =   594.3153 eV,   43.6809 Ry                                                             
                                                                                                    
   TITEL  = PAW_PBE Fe 06Sep2000                                                                    
   LULTRA =        F    use ultrasoft PP ?                                                          
   IUNSCR =        1    unscreen: 0-lin 1-nonlin 2-no                                               
   RPACOR =    2.000    partial core radius                                                         
   POMASS =   55.847; ZVAL   =    8.000    mass and valenz                                          
   RCORE  =    2.300    outmost cutoff radius                                                       
   RWIGS  =    2.460; RWIGS  =    1.302    wigner-seitz radius (au A)                               
   ENMAX  =  267.882; ENMIN  =  200.911 eV                                                          
   RCLOC  =    1.701    cutoff for local pot                                                        
   LCOR   =        T    correct aug charges                                                         
   LPAW   =        T    paw PP                                                                      
   EAUG   =  511.368                                                                                
   DEXC   =    0.000                                                                                
   RMAX   =    2.356    core radius for proj-oper                                                   
   RAUG   =    1.300    factor for augmentation sphere                                              
   RDEP   =    2.442    radius for radial grids                                                     
   RDEPT  =    1.890    core radius for aug-charge                                                  
                                                                                                    
   Atomic configuration                                                                             
    9 entries                                                                                       
     n  l   j            E        occ.                                                              
     1  0  0.50     -6993.8440   2.0000                                                             
     2  0  0.50      -814.6047   2.0000                                                             
     2  1  1.50      -693.3689   6.0000                                                             
     3  0  0.50       -89.4732   2.0000                                                             
     3  1  1.50       -55.6373   6.0000                                                             
     3  2  2.50        -3.8151   7.0000                                                             
     4  0  0.50        -4.2551   1.0000                                                             
     4  1  1.50        -3.4015   0.0000                                                             
     4  3  2.50        -1.3606   0.0000                                                             
   Description                                                                                      
     l       E           TYP  RCUT    TYP  RCUT                                                     
     2     -3.8151135     23  2.300                                                                 
     2     -5.1756961     23  2.300                                                                 
     0     -4.2550963     23  2.300                                                                 
     0      7.2035603     23  2.300                                                                 
     1     -2.7211652     23  2.300                                                                 
     1     18.4316424     23  2.300                                                                 
  local pseudopotential read in
  partial core-charges read in
  partial kinetic energy density read in
  atomic valenz-charges read in
  non local Contribution for L=           2  read in
    real space projection operators read in
  non local Contribution for L=           2  read in
    real space projection operators read in
  non local Contribution for L=           0  read in
    real space projection operators read in
  non local Contribution for L=           0  read in
    real space projection operators read in
  non local Contribution for L=           1  read in
    real space projection operators read in
  non local Contribution for L=           1  read in
    real space projection operators read in
    PAW grid and wavefunctions read in
 
   number of l-projection  operators is LMAX  =           6
   number of lm-projection operators is LMMAX =          18
 
  PAW_PBE Fe 06Sep2000                  :
 energy of atom  1       EATOM= -594.3153
 kinetic energy error for atom=    0.0026 (will be added to EATOM!!)
 
 
 POSCAR: Fe
  positions in cartesian coordinates
  No initial velocities read in


 exchange-correlation table for PE
   RHO(1)=    0.500       N(1)  =     2000
   RHO(2)=  100.500       N(2)  =     4000
 


--------------------------------------------------------------------------------------------------------


 ion  position               nearest neighbor table
   1  0.333  0.667  0.250-   2 2.38   2 2.38   2 2.38   2 2.38   2 2.38   2 2.38
   2  0.667  0.333  0.750-   1 2.38   1 2.38   1 2.38   1 2.38   1 2.38   1 2.38
 
  LATTYP: Found a hexagonal cell.
 ALAT       =     2.4341575900
 C/A-ratio  =     1.5783425386
  
  Lattice vectors:
  
 A1 = (   2.4341575900,   0.0000000000,   0.0000000000)
 A2 = (  -1.2170787950,   2.1080423098,   0.0000000000)
 A3 = (   0.0000000000,   0.0000000000,   3.8419344700)


Analysis of symmetry for initial positions (statically):
=====================================================================
 Subroutine PRICEL returns:
 Original cell was already a primitive cell.
 

 Routine SETGRP: Setting up the symmetry group for a 
 hexagonal supercell.


 Subroutine GETGRP returns: Found 24 space group operations
 (whereof 12 operations were pure point group operations)
 out of a pool of 24 trial point group operations.


The static configuration has the point symmetry D_3d.
 The point group associated with its full space group is D_6h.


Analysis of symmetry for dynamics (positions and initial velocities):
=====================================================================
 Subroutine PRICEL returns:
 Original cell was already a primitive cell.
 

 Routine SETGRP: Setting up the symmetry group for a 
 hexagonal supercell.


 Subroutine GETGRP returns: Found 24 space group operations
 (whereof 12 operations were pure point group operations)
 out of a pool of 24 trial point group operations.


The dynamic configuration has the point symmetry D_3d.
 The point group associated with its full space group is D_6h.


Analysis of structural, dynamic, and magnetic symmetry:
=====================================================================
 Subroutine PRICEL returns:
 Original cell was already a primitive cell.
 

 Routine SETGRP: Setting up the symmetry group for a 
 hexagonal supercell.


 Subroutine GETGRP returns: Found 24 space group operations
 (whereof 12 operations were pure point group operations)
 out of a pool of 24 trial point group operations.


The overall configuration has the point symmetry D_3d.
 The point group associated with its full space group is D_6h.


 Subroutine INISYM returns: Found 24 space group operations
 (whereof 12 operations are pure point group operations),
 and found     1 'primitive' translations


----------------------------------------------------------------------------------------

                                     Primitive cell                                     

  volume of cell :      19.7141

  direct lattice vectors                    reciprocal lattice vectors
     2.434157590  0.000000000  0.000000000     0.410819745  0.237186890  0.000000000
    -1.217078795  2.108042310  0.000000000     0.000000000  0.474373781  0.000000000
     0.000000000  0.000000000  3.841934470     0.000000000  0.000000000  0.260285543

  length of vectors
     2.434157590  2.434157590  3.841934470     0.474373781  0.474373781  0.260285543

  position of ions in fractional coordinates (direct lattice)
     0.333333330  0.666666670  0.250000000
     0.666666670  0.333333330  0.750000000

  ion indices of the primitive-cell ions
   primitive index   ion index
                 1           1
                 2           2

----------------------------------------------------------------------------------------

 
 -----------------------------------------------------------------------------
|                                                                             |
|           W    W    AA    RRRRR   N    N  II  N    N   GGGG   !!!           |
|           W    W   A  A   R    R  NN   N  II  NN   N  G    G  !!!           |
|           W    W  A    A  R    R  N N  N  II  N N  N  G       !!!           |
|           W WW W  AAAAAA  RRRRR   N  N N  II  N  N N  G  GGG   !            |
|           WW  WW  A    A  R   R   N   NN  II  N   NN  G    G                |
|           W    W  A    A  R    R  N    N  II  N    N   GGGG   !!!           |
|                                                                             |
|     The requested file  could not be found or opened for reading            |
|     k-point information. Automatic k-point generation is used as a          |
|     fallback, which may lead to unwanted results.                           |
|                                                                             |
 -----------------------------------------------------------------------------

 

Automatic generation of k-mesh.
 Grid dimensions derived from KSPACING:
 generate k-points for:    8    8    5

 Generating k-lattice:

  Cartesian coordinates                     Fractional coordinates (reciprocal lattice)
     0.051352468  0.029648361  0.000000000     0.125000000  0.000000000  0.000000000
     0.000000000  0.059296723  0.000000000     0.000000000  0.125000000  0.000000000
     0.000000000  0.000000000  0.052057109     0.000000000  0.000000000  0.200000000

  Length of vectors
     0.059296723  0.059296723  0.052057109

  Shift w.r.t. Gamma in fractional coordinates (k-lattice)
     0.000000000  0.000000000  0.000000000

 
 Subroutine IBZKPT returns following result:
 ===========================================
 
 Found     30 irreducible k-points:
 
 Following reciprocal coordinates:
            Coordinates               Weight
  0.000000  0.000000  0.000000      1.000000
  0.125000  0.000000  0.000000      6.000000
  0.250000  0.000000  0.000000      6.000000
  0.375000  0.000000  0.000000      6.000000
  0.500000  0.000000  0.000000      3.000000
  0.125000  0.125000  0.000000      6.000000
  0.250000  0.125000  0.000000     12.000000
  0.375000  0.125000  0.000000     12.000000
  0.250000  0.250000  0.000000      6.000000
  0.375000  0.250000  0.000000      6.000000
  0.000000  0.000000  0.200000      2.000000
  0.125000  0.000000  0.200000     12.000000
  0.250000  0.000000  0.200000     12.000000
  0.375000  0.000000  0.200000     12.000000
  0.500000  0.000000  0.200000      6.000000
  0.125000  0.125000  0.200000     12.000000
  0.250000  0.125000  0.200000     24.000000
  0.375000  0.125000  0.200000     24.000000
  0.250000  0.250000  0.200000     12.000000
  0.375000  0.250000  0.200000     12.000000
  0.000000  0.000000  0.400000      2.000000
  0.125000  0.000000  0.400000     12.000000
  0.250000  0.000000  0.400000     12.000000
  0.375000  0.000000  0.400000     12.000000
  0.500000  0.000000  0.400000      6.000000
  0.125000  0.125000  0.400000     12.000000
  0.250000  0.125000  0.400000     24.000000
  0.375000  0.125000  0.400000     24.000000
  0.250000  0.250000  0.400000     12.000000
  0.375000  0.250000  0.400000     12.000000
 
 Following cartesian coordinates:
            Coordinates               Weight
  0.000000  0.000000  0.000000      1.000000
  0.051352  0.029648  0.000000      6.000000
  0.102705  0.059297  0.000000      6.000000
  0.154057  0.088945  0.000000      6.000000
  0.205410  0.118593  0.000000      3.000000
  0.051352  0.088945  0.000000      6.000000
  0.102705  0.118593  0.000000     12.000000
  0.154057  0.148242  0.000000     12.000000
  0.102705  0.177890  0.000000      6.000000
  0.154057  0.207539  0.000000      6.000000
  0.000000  0.000000  0.052057      2.000000
  0.051352  0.029648  0.052057     12.000000
  0.102705  0.059297  0.052057     12.000000
  0.154057  0.088945  0.052057     12.000000
  0.205410  0.118593  0.052057      6.000000
  0.051352  0.088945  0.052057     12.000000
  0.102705  0.118593  0.052057     24.000000
  0.154057  0.148242  0.052057     24.000000
  0.102705  0.177890  0.052057     12.000000
  0.154057  0.207539  0.052057     12.000000
  0.000000  0.000000  0.104114      2.000000
  0.051352  0.029648  0.104114     12.000000
  0.102705  0.059297  0.104114     12.000000
  0.154057  0.088945  0.104114     12.000000
  0.205410  0.118593  0.104114      6.000000
  0.051352  0.088945  0.104114     12.000000
  0.102705  0.118593  0.104114     24.000000
  0.154057  0.148242  0.104114     24.000000
  0.102705  0.177890  0.104114     12.000000
  0.154057  0.207539  0.104114     12.000000
 


--------------------------------------------------------------------------------------------------------




 Dimension of arrays:
   k-points           NKPTS =     30   k-points in BZ     NKDIM =     30   number of bands    NBANDS=     16
   number of dos      NEDOS =    301   number of ions     NIONS =      2
   non local maximal  LDIM  =      6   non local SUM 2l+1 LMDIM =     18
   total plane-waves  NPLWV =   9720
   max r-space proj   IRMAX =      1   max aug-charges    IRDMAX=  17761
   dimension x,y,z NGX =    18 NGY =   18 NGZ =   30
   dimension x,y,z NGXF=    36 NGYF=   36 NGZF=   60
   support grid    NGXF=    36 NGYF=   36 NGZF=   60
   ions per type =               2
   NGX,Y,Z   is equivalent  to a cutoff of  12.29, 12.29, 12.98 a.u.
   NGXF,Y,Z  is equivalent  to a cutoff of  24.59, 24.59, 25.96 a.u.

 SYSTEM =  unknown system                          
 POSCAR =  Fe                                      

 Startparameter for this run:
   NWRITE =      2    write-flag & timer
   PREC   = accura    normal or accurate (medium, high low for compatibility)
   ISTART =      0    job   : 0-new  1-cont  2-samecut
   ICHARG =      2    charge: 1-file 2-atom 10-const
   ISPIN  =      2    spin polarized calculation?
   LNONCOLLINEAR =      F non collinear calculations
   LSORBIT =      F    spin-orbit coupling
   INIWAV =      1    electr: 0-lowe 1-rand  2-diag
   LASPH  =      T    aspherical Exc in radial PAW
 Electronic Relaxation 1
   ENCUT  =  520.0 eV  38.22 Ry    6.18 a.u.   4.53  4.53  7.14*2*pi/ulx,y,z
   ENINI  =  520.0     initial cutoff
   ENAUG  =  511.4 eV  augmentation charge cutoff
   NELM   =     60;   NELMIN=  2; NELMDL= -5     # of ELM steps 
   EDIFF  = 0.1E-04   stopping-criterion for ELM
   LREAL  =      F    real-space projection
   NLSPLINE    = F    spline interpolate recip. space projectors
   LCOMPAT=      F    compatible to vasp.4.4
   GGA_COMPAT  = F    GGA compatible to vasp.4.4-vasp.4.6
   LMAXPAW     = -100 max onsite density
   LMAXMIX     =    2 max onsite mixed and CHGCAR
   VOSKOWN=      0    Vosko Wilk Nusair interpolation
   ROPT   =    0.00000
 Ionic relaxation
   EDIFFG = -.3E-01   stopping-criterion for IOM
   NSW    =    100    number of steps for IOM
   NBLOCK =      1;   KBLOCK =    100    inner block; outer block 
   IBRION =      2    ionic relax: 0-MD 1-quasi-New 2-CG
   NFREE  =      1    steps in history (QN), initial steepest desc. (CG)
   ISIF   =      3    stress and relaxation
   IWAVPR =     11    prediction:  0-non 1-charg 2-wave 3-comb
   ISYM   =      2    0-nonsym 1-usesym 2-fastsym
   LCORR  =      T    Harris-Foulkes like correction to forces

   POTIM  = 0.5000    time-step for ionic-motion
   TEIN   =    0.0    initial temperature
   TEBEG  =    0.0;   TEEND  =   0.0 temperature during run
   SMASS  =  -3.00    Nose mass-parameter (am)
   estimated Nose-frequenzy (Omega)   =  0.10E-29 period in steps = 0.13E+47 mass=  -0.135E-27a.u.
   SCALEE = 1.0000    scale energy and forces
   NPACO  =    256;   APACO  = 10.0  distance and # of slots for P.C.
   PSTRESS=    0.0 pullay stress

  Mass of Ions in am
   POMASS =  55.85
  Ionic Valenz
   ZVAL   =   8.00
  Atomic Wigner-Seitz radii
   RWIGS  =  -1.00
  virtual crystal weights 
   VCA    =   1.00
   NELECT =      16.0000    total number of electrons
   NUPDOWN=      -1.0000    fix difference up-down

 DOS related values:
   EMIN   =  10.00;   EMAX   =-10.00  energy-range for DOS
   EFERMI =   0.00;   METHOD = MIDGAP      
   ISMEAR =     0;   SIGMA  =   0.05  broadening in eV -4-tet -1-fermi 0-gaus
   EFERMI_NEDOS =   21; number of points for ismear=-14 and -15

 Electronic relaxation 2 (details)
   IALGO  =     68    algorithm
   LDIAG  =      T    sub-space diagonalisation (order eigenvalues)
   LSUBROT=      F    optimize rotation matrix (better conditioning)
   LROBUST=      F    robust break criterion during scf (extrapolated energy error)
   ISEARCH=      0    line search for conjugate gradient (0, 1=use gradient)
   TURBO    =      0    0=normal 1=particle mesh
   IRESTART =      0    0=no restart 2=restart with 2 vectors
   NREBOOT  =      0    no. of reboots
   NMIN     =      0    reboot dimension
   EREF     =   0.00    reference energy to select bands
   IMIX   =      4    mixing-type and parameters
     AMIX     =   0.40;   BMIX     =  1.00
     AMIX_MAG =   1.60;   BMIX_MAG =  1.00
     AMIN     =   0.10
     WC   =   100.;   INIMIX=   1;  MIXPRE=   1;  MAXMIX= -45

 Intra band minimization:
   WEIMIN = 0.0010     energy-eigenvalue tresh-hold
   EBREAK =  0.16E-06  absolut break condition
   DEPER  =   0.30     relativ break condition  

   TIME   =   0.40     timestep for ELM

  volume/ion in A,a.u.               =       9.86        66.52
  Fermi-wavevector in a.u.,A,eV,Ry     =   1.527058  2.885721 31.727505  2.331906
  Thomas-Fermi vector in A             =   2.635006
 
 Write flags
   LWAVE        =      T    write WAVECAR
   LDOWNSAMPLE  =      F    k-point downsampling of WAVECAR
   LCHARG       =      T    write CHGCAR
   LVTOT        =      F    write LOCPOT, total local potential
   LVHAR        =      F    write LOCPOT, Hartree potential only
   WRT_POTENTIAL= false  ! write potential to hdf5 file
   LELF         =      F    write electronic localiz. function (ELF)
   LORBIT       =     11    0 simple, 1 ext, 2 COOP (PROOUT), +10 PAW based schemes


 Python interface
   PLUGINS active      =      F    recompile with -DPLUGINS to activate
 
 Dipole corrections
   LMONO      =      F    monopole corrections only (constant potential shift)
   LDIPOL     =      F    correct potential (dipole corrections)
   IDIPOL     =      0    1-x, 2-y, 3-z, 4-all directions 
   EPSILON    =  1.0000000 bulk dielectric constant
   LVACPOTAV  =      F  vacuum potentials using an averaging scheme for the charge density
   VACPOTFLAT =  0.1000000 required flatness to determine vacuum potential
 
Coulomb truncation method
  LTRUNCATE          =      F  Coulomb kernel truncation to be used

 
 Exchange correlation treatment:
   GGA     = PE    functional components
   XC_C    = 1    coefficients multiplying the functional components
   LIBXC   =     F    Libxc                    
   VOSKOWN =     0    Vosko Wilk Nusair interpolation
   LHFCALC =     F    Hartree Fock is set to
   LHFONE  =     F    Hartree Fock one center treatment
   AEXX    =    0.0000 exact exchange contribution

 Parameters of functionals:
   PE:
     No parameter
 
 Van der Waals corrections
   IVDW    =     0    specifies the selected vdW correction

 Linear response parameters
   LEPSILON=     F    determine dielectric tensor
   LRPA    =     F    only Hartree local field effects (RPA)
   LNABLA  =     F    use nabla operator in PAW spheres
   LVEL    =     F    velocity operator in full k-point grid
   CSHIFT  =0.1000    complex shift for real part using Kramers Kronig
   OMEGAMAX=  -1.0    maximum frequency
   DEG_THRESHOLD= 0.2000000E-02 threshold for treating states as degnerate
   RTIME   =   -0.100 relaxation time in fs
  (WPLASMAI=    0.000 imaginary part of plasma frequency in eV, 0.658/RTIME)
   DFIELD  = 0.0000000 0.0000000 0.0000000 field for delta impulse in time
 
  Optional k-point grid parameters
   LKPOINTS_OPT  =     F    use optional k-point grid
   KPOINTS_OPT_MODE=     1    mode for optional k-point grid
 
 Orbital magnetization related:
   ORBITALMAG=     F  switch on orbital magnetization
   LCHIMAG   =     F  perturbation theory with respect to B field
   DQ        =  0.001000  dq finite difference perturbation B field
   LLRAUG    =     F  two centre corrections for induced B field
   LBONE     =     F  B-component reconstruction in AE one-centre
   LVGVCALC  =     T  calculate vGv susceptibility
   LVGVAPPL  =     F  apply vGv susceptibility instead of pGv for G=0

 Random number generation:
   RANDOM_GENERATOR = DEFAULT
   PCG_SEED         = not used


--------------------------------------------------------------------------------------------------------


 conjugate gradient relaxation of ions
 charge density and potential will be updated during run
 spin polarized calculation
 RMM-DIIS sequential band-by-band and
  variant of blocked Davidson during initial phase
 perform sub-space diagonalisation
    before iterative eigenvector-optimisation
 modified Broyden-mixing scheme, WC =      100.0
 initial mixing is a Kerker type mixing with AMIX =  0.4000 and BMIX =      1.0000
 Hartree-type preconditioning will be used
 using additional bands            8
 reciprocal scheme for non local part
 use partial core corrections
 calculate Harris-corrections to forces 
   (improved forces if not selfconsistent)
 use gradient corrections 
 use of overlap-Matrix (Vanderbilt PP)
 Gauss-broadening in eV      SIGMA  =   0.05


--------------------------------------------------------------------------------------------------------


  energy-cutoff  :      520.00
  volume of cell :       19.71
      direct lattice vectors                 reciprocal lattice vectors
     2.434157590  0.000000000  0.000000000     0.410819745  0.237186890  0.000000000
    -1.217078795  2.108042310  0.000000000     0.000000000  0.474373781  0.000000000
     0.000000000  0.000000000  3.841934470     0.000000000  0.000000000  0.260285543

  length of vectors
     2.434157590  2.434157590  3.841934470     0.474373781  0.474373781  0.260285543


 
 k-points in units of 2pi/SCALE and weight: read from INCAR                         
   0.00000000  0.00000000  0.00000000       0.003
   0.05135247  0.02964836  0.00000000       0.019
   0.10270494  0.05929672  0.00000000       0.019
   0.15405740  0.08894508  0.00000000       0.019
   0.20540987  0.11859345  0.00000000       0.009
   0.05135247  0.08894508  0.00000000       0.019
   0.10270494  0.11859345  0.00000000       0.038
   0.15405740  0.14824181  0.00000000       0.038
   0.10270494  0.17789017  0.00000000       0.019
   0.15405740  0.20753853  0.00000000       0.019
   0.00000000  0.00000000  0.05205711       0.006
   0.05135247  0.02964836  0.05205711       0.038
   0.10270494  0.05929672  0.05205711       0.038
   0.15405740  0.08894508  0.05205711       0.038
   0.20540987  0.11859345  0.05205711       0.019
   0.05135247  0.08894508  0.05205711       0.038
   0.10270494  0.11859345  0.05205711       0.075
   0.15405740  0.14824181  0.05205711       0.075
   0.10270494  0.17789017  0.05205711       0.038
   0.15405740  0.20753853  0.05205711       0.038
   0.00000000  0.00000000  0.10411422       0.006
   0.05135247  0.02964836  0.10411422       0.038
   0.10270494  0.05929672  0.10411422       0.038
   0.15405740  0.08894508  0.10411422       0.038
   0.20540987  0.11859345  0.10411422       0.019
   0.05135247  0.08894508  0.10411422       0.038
   0.10270494  0.11859345  0.10411422       0.075
   0.15405740  0.14824181  0.10411422       0.075
   0.10270494  0.17789017  0.10411422       0.038
   0.15405740  0.20753853  0.10411422       0.038
 
 k-points in reciprocal lattice and weights: read from INCAR                         
   0.00000000  0.00000000  0.00000000       0.003
   0.12500000  0.00000000  0.00000000       0.019
   0.25000000  0.00000000  0.00000000       0.019
   0.37500000  0.00000000  0.00000000       0.019
   0.50000000  0.00000000  0.00000000       0.009
   0.12500000  0.12500000  0.00000000       0.019
   0.25000000  0.12500000  0.00000000       0.038
   0.37500000  0.12500000  0.00000000       0.038
   0.25000000  0.25000000  0.00000000       0.019
   0.37500000  0.25000000  0.00000000       0.019
   0.00000000  0.00000000  0.20000000       0.006
   0.12500000  0.00000000  0.20000000       0.038
   0.25000000  0.00000000  0.20000000       0.038
   0.37500000  0.00000000  0.20000000       0.038
   0.50000000  0.00000000  0.20000000       0.019
   0.12500000  0.12500000  0.20000000       0.038
   0.25000000  0.12500000  0.20000000       0.075
   0.37500000  0.12500000  0.20000000       0.075
   0.25000000  0.25000000  0.20000000       0.038
   0.37500000  0.25000000  0.20000000       0.038
   0.00000000  0.00000000  0.40000000       0.006
   0.12500000  0.00000000  0.40000000       0.038
   0.25000000  0.00000000  0.40000000       0.038
   0.37500000  0.00000000  0.40000000       0.038
   0.50000000  0.00000000  0.40000000       0.019
   0.12500000  0.12500000  0.40000000       0.038
   0.25000000  0.12500000  0.40000000       0.075
   0.37500000  0.12500000  0.40000000       0.075
   0.25000000  0.25000000  0.40000000       0.038
   0.37500000  0.25000000  0.40000000       0.038
 
 position of ions in fractional coordinates (direct lattice) 
   0.33333333  0.66666667  0.25000000
   0.66666667  0.33333333  0.75000000
 
 position of ions in cartesian coordinates  (Angst):
  -0.00000001  1.40536155  0.96048362
   1.21707881  0.70268076  2.88145085
 


--------------------------------------------------------------------------------------------------------


 k-point     1 :   0.0000 0.0000 0.0000  plane waves:     537
 k-point     2 :   0.1250 0.0000 0.0000  plane waves:     544
 k-point     3 :   0.2500 0.0000 0.0000  plane waves:     532
 k-point     4 :   0.3750 0.0000 0.0000  plane waves:     534
 k-point     5 :   0.5000 0.0000 0.0000  plane waves:     520
 k-point     6 :   0.1250 0.1250 0.0000  plane waves:     529
 k-point     7 :   0.2500 0.1250 0.0000  plane waves:     526
 k-point     8 :   0.3750 0.1250 0.0000  plane waves:     524
 k-point     9 :   0.2500 0.2500 0.0000  plane waves:     521
 k-point    10 :   0.3750 0.2500 0.0000  plane waves:     526
 k-point    11 :   0.0000 0.0000 0.2000  plane waves:     548
 k-point    12 :   0.1250 0.0000 0.2000  plane waves:     544
 k-point    13 :   0.2500 0.0000 0.2000  plane waves:     542
 k-point    14 :   0.3750 0.0000 0.2000  plane waves:     526
 k-point    15 :   0.5000 0.0000 0.2000  plane waves:     528
 k-point    16 :   0.1250 0.1250 0.2000  plane waves:     538
 k-point    17 :   0.2500 0.1250 0.2000  plane waves:     528
 k-point    18 :   0.3750 0.1250 0.2000  plane waves:     525
 k-point    19 :   0.2500 0.2500 0.2000  plane waves:     519
 k-point    20 :   0.3750 0.2500 0.2000  plane waves:     527
 k-point    21 :   0.0000 0.0000 0.4000  plane waves:     530
 k-point    22 :   0.1250 0.0000 0.4000  plane waves:     532
 k-point    23 :   0.2500 0.0000 0.4000  plane waves:     534
 k-point    24 :   0.3750 0.0000 0.4000  plane waves:     531
 k-point    25 :   0.5000 0.0000 0.4000  plane waves:     524
 k-point    26 :   0.1250 0.1250 0.4000  plane waves:     536
 k-point    27 :   0.2500 0.1250 0.4000  plane waves:     539
 k-point    28 :   0.3750 0.1250 0.4000  plane waves:     529
 k-point    29 :   0.2500 0.2500 0.4000  plane waves:     529
 k-point    30 :   0.3750 0.2500 0.4000  plane waves:     526

 maximum and minimum number of plane-waves per node :       548      519

 maximum number of plane-waves:       548
 maximum index in each direction: 
   IXMAX=    4   IYMAX=    4   IZMAX=    7
   IXMIN=   -5   IYMIN=   -4   IZMIN=   -7


 serial   3D FFT for wavefunctions
 parallel 3D FFT for charge:
    minimum data exchange during FFTs selected (reduces bandwidth)


 total amount of memory used by VASP MPI-rank0    37625. kBytes
=======================================================================

   base                                    :      30000. kBytes
   nonl-proj                               :       2384. kBytes
   fftplans                                :        714. kBytes
   grid                                    :       2223. kBytes
   one-center                              :         62. kBytes
   wavefun                                 :       2242. kBytes
 
     INWAV:  cpu time      0.0000: real time      0.0000
 Broyden mixing: mesh for mixing (old mesh)
   NGX =  9   NGY =  9   NGZ = 15
  (NGX  = 36   NGY  = 36   NGZ  = 60)
  gives a total of   1215 points

 initial charge density was supplied:
 charge density of overlapping atoms calculated
 number of electron      16.0000000 magnetization       8.0000000
 keeping initial charge density in first step


--------------------------------------------------------------------------------------------------------


 Maximum index for augmentation-charges         4275 (set IRDMAX)


--------------------------------------------------------------------------------------------------------


 First call to EWALD:  gamma=   0.656
 Maximum number of real-space cells   3x   3x   2
 Maximum number of reciprocal cells   3x   3x   4

    FEWALD:  cpu time      0.0006: real time      0.0006


--------------------------------------- Ionic step        1  -------------------------------------------




--------------------------------------- Iteration      1(   1)  ---------------------------------------


    POTLOK:  cpu time      0.0197: real time      0.0198
    SETDIJ:  cpu time      0.1341: real time      0.1344
     EDDAV:  cpu time      0.2334: real time      0.2345
       DOS:  cpu time      0.0007: real time      0.0007
    --------------------------------------------
      LOOP:  cpu time      0.3881: real time      0.3897

 eigenvalue-minimisations  :  1984
 total energy-change (2. order) : 0.7271635E+02  (-0.7578222E+03)
 number of electron      16.0000000 magnetization       8.0000000
 augmentation part       16.0000000 magnetization       8.0000000

 Free energy of the ion-electron system (eV)
  ---------------------------------------------------
  alpha Z        PSCENC =       140.23184394
  Ewald energy   TEWEN  =     -1241.17964709
  -Hartree energ DENC   =      -202.05310945
  -exchange      EXHF   =         0.00000000
  -V(xc)+E(xc)   XCENC  =        12.94034756
  PAW double counting   =      1105.78361136    -1121.29561652
  entropy T*S    EENTRO =        -0.00186219
  eigenvalues    EBANDS =       189.66541774
  atomic energy  EATOM  =      1188.62536141
  Solvation  Ediel_sol  =         0.00000000
  ---------------------------------------------------
  free energy    TOTEN  =        72.71634676 eV

  energy without entropy =       72.71820895  energy(sigma->0) =       72.71727785


--------------------------------------------------------------------------------------------------------




--------------------------------------- Iteration      1(   2)  ---------------------------------------


     EDDAV:  cpu time      0.2237: real time      0.2249
       DOS:  cpu time      0.0003: real time      0.0003
    --------------------------------------------
      LOOP:  cpu time      0.2239: real time      0.2252

 eigenvalue-minimisations  :  1920
 total energy-change (2. order) :-0.8668009E+02  (-0.7978404E+02)
 number of electron      16.0000000 magnetization       8.0000000
 augmentation part       16.0000000 magnetization       8.0000000

 Free energy of the ion-electron system (eV)
  ---------------------------------------------------
  alpha Z        PSCENC =       140.23184394
  Ewald energy   TEWEN  =     -1241.17964709
  -Hartree energ DENC   =      -202.05310945
  -exchange      EXHF   =         0.00000000
  -V(xc)+E(xc)   XCENC  =        12.94034756
  PAW double counting   =      1105.78361136    -1121.29561652
  entropy T*S    EENTRO =        -0.00457425
  eigenvalues    EBANDS =       102.98804376
  atomic energy  EATOM  =      1188.62536141
  Solvation  Ediel_sol  =         0.00000000
  ---------------------------------------------------
  free energy    TOTEN  =       -13.96373929 eV

  energy without entropy =      -13.95916503  energy(sigma->0) =      -13.96145216


--------------------------------------------------------------------------------------------------------




--------------------------------------- Iteration      1(   3)  ---------------------------------------


     EDDAV:  cpu time      0.2693: real time      0.2708
       DOS:  cpu time      0.0003: real time      0.0003
    --------------------------------------------
      LOOP:  cpu time      0.2696: real time      0.2711

 eigenvalue-minimisations  :  2392
 total energy-change (2. order) :-0.2028281E+01  (-0.1969160E+01)
 number of electron      16.0000000 magnetization       8.0000000
 augmentation part       16.0000000 magnetization       8.0000000

 Free energy of the ion-electron system (eV)
  ---------------------------------------------------
  alpha Z        PSCENC =       140.23184394
  Ewald energy   TEWEN  =     -1241.17964709
  -Hartree energ DENC   =      -202.05310945
  -exchange      EXHF   =         0.00000000
  -V(xc)+E(xc)   XCENC  =        12.94034756
  PAW double counting   =      1105.78361136    -1121.29561652
  entropy T*S    EENTRO =        -0.00687184
  eigenvalues    EBANDS =       100.96206038
  atomic energy  EATOM  =      1188.62536141
  Solvation  Ediel_sol  =         0.00000000
  ---------------------------------------------------
  free energy    TOTEN  =       -15.99202025 eV

  energy without entropy =      -15.98514841  energy(sigma->0) =      -15.98858433


--------------------------------------------------------------------------------------------------------




--------------------------------------- Iteration      1(   4)  ---------------------------------------


     EDDAV:  cpu time      0.2571: real time      0.2585
       DOS:  cpu time      0.0003: real time      0.0003
    --------------------------------------------
      LOOP:  cpu time      0.2574: real time      0.2588

 eigenvalue-minimisations  :  2272
 total energy-change (2. order) :-0.1256508E-01  (-0.1256361E-01)
 number of electron      16.0000000 magnetization       8.0000000
 augmentation part       16.0000000 magnetization       8.0000000

 Free energy of the ion-electron system (eV)
  ---------------------------------------------------
  alpha Z        PSCENC =       140.23184394
  Ewald energy   TEWEN  =     -1241.17964709
  -Hartree energ DENC   =      -202.05310945
  -exchange      EXHF   =         0.00000000
  -V(xc)+E(xc)   XCENC  =        12.94034756
  PAW double counting   =      1105.78361136    -1121.29561652
  entropy T*S    EENTRO =        -0.00686909
  eigenvalues    EBANDS =       100.94949255
  atomic energy  EATOM  =      1188.62536141
  Solvation  Ediel_sol  =         0.00000000
  ---------------------------------------------------
  free energy    TOTEN  =       -16.00458533 eV

  energy without entropy =      -15.99771624  energy(sigma->0) =      -16.00115078


--------------------------------------------------------------------------------------------------------




--------------------------------------- Iteration      1(   5)  ---------------------------------------


     EDDAV:  cpu time      0.2702: real time      0.2716
       DOS:  cpu time      0.0003: real time      0.0003
    CHARGE:  cpu time      0.0192: real time      0.0192
    MIXING:  cpu time      0.0008: real time      0.0008
    --------------------------------------------
      LOOP:  cpu time      0.2903: real time      0.2918

 eigenvalue-minimisations  :  2408
 total energy-change (2. order) :-0.1475148E-03  (-0.1475150E-03)
 number of electron      16.0000008 magnetization       3.9934006
 augmentation part        7.4067761 magnetization       2.6604781

 Broyden mixing:
  rms(total) = 0.21572E+01    rms(broyden)= 0.21572E+01
  rms(prec ) = 0.30038E+01
  weight for this iteration     100.00

 Free energy of the ion-electron system (eV)
  ---------------------------------------------------
  alpha Z        PSCENC =       140.23184394
  Ewald energy   TEWEN  =     -1241.17964709
  -Hartree energ DENC   =      -202.05310945
  -exchange      EXHF   =         0.00000000
  -V(xc)+E(xc)   XCENC  =        12.94034756
  PAW double counting   =      1105.78361136    -1121.29561652
  entropy T*S    EENTRO =        -0.00686914
  eigenvalues    EBANDS =       100.94934508
  atomic energy  EATOM  =      1188.62536141
  Solvation  Ediel_sol  =         0.00000000
  ---------------------------------------------------
  free energy    TOTEN  =       -16.00473284 eV

  energy without entropy =      -15.99786371  energy(sigma->0) =      -16.00129828


--------------------------------------------------------------------------------------------------------




--------------------------------------- Iteration      1(   6)  ---------------------------------------


    POTLOK:  cpu time      0.0193: real time      0.0196
    SETDIJ:  cpu time      0.1351: real time      0.1353
    EDDIAG:  cpu time      0.0581: real time      0.0584
  RMM-DIIS:  cpu time      0.1384: real time      0.1389
    ORTHCH:  cpu time      0.0071: real time      0.0072
       DOS:  cpu time      0.0004: real time      0.0004
    CHARGE:  cpu time      0.0207: real time      0.0207
    MIXING:  cpu time      0.0010: real time      0.0010
    --------------------------------------------
      LOOP:  cpu time      0.3801: real time      0.3814

 eigenvalue-minimisations  :  1920
 total energy-change (2. order) : 0.2898003E+00  (-0.5532054E+00)
 number of electron      16.0000009 magnetization       2.5111159
 augmentation part        8.3264747 magnetization       1.9687067

 Broyden mixing:
  rms(total) = 0.43441E+00    rms(broyden)= 0.43439E+00
  rms(prec ) = 0.44839E+00
  weight for this iteration     100.00

 eigenvalues of (default mixing * dielectric matrix)
  average eigenvalue GAMMA=   1.2228
  1.2228

 Free energy of the ion-electron system (eV)
  ---------------------------------------------------
  alpha Z        PSCENC =       140.23184394
  Ewald energy   TEWEN  =     -1241.17964709
  -Hartree energ DENC   =      -174.05017564
  -exchange      EXHF   =         0.00000000
  -V(xc)+E(xc)   XCENC  =         8.70004316
  PAW double counting   =      1303.59546320    -1316.64126825
  entropy T*S    EENTRO =        -0.00797803
  eigenvalues    EBANDS =        75.01142476
  atomic energy  EATOM  =      1188.62536141
  Solvation  Ediel_sol  =         0.00000000
  ---------------------------------------------------
  free energy    TOTEN  =       -15.71493255 eV

  energy without entropy =      -15.70695452  energy(sigma->0) =      -15.71094354


--------------------------------------------------------------------------------------------------------




--------------------------------------- Iteration      1(   7)  ---------------------------------------


    POTLOK:  cpu time      0.0205: real time      0.0208
    SETDIJ:  cpu time      0.1360: real time      0.1363
    EDDIAG:  cpu time      0.0588: real time      0.0591
  RMM-DIIS:  cpu time      0.1370: real time      0.1374
    ORTHCH:  cpu time      0.0058: real time      0.0058
       DOS:  cpu time      0.0003: real time      0.0003
    CHARGE:  cpu time      0.0187: real time      0.0188
    MIXING:  cpu time      0.0009: real time      0.0009
    --------------------------------------------
      LOOP:  cpu time      0.3779: real time      0.3793

 eigenvalue-minimisations  :  1920
 total energy-change (2. order) :-0.3397094E+00  (-0.2376423E-01)
 number of electron      16.0000009 magnetization       2.2255659
 augmentation part        8.0880936 magnetization       2.0217699

 Broyden mixing:
  rms(total) = 0.57295E+00    rms(broyden)= 0.57295E+00
  rms(prec ) = 0.67205E+00
  weight for this iteration     100.00

 eigenvalues of (default mixing * dielectric matrix)
  average eigenvalue GAMMA=   0.6919
  1.1924  0.1913

 Free energy of the ion-electron system (eV)
  ---------------------------------------------------
  alpha Z        PSCENC =       140.23184394
  Ewald energy   TEWEN  =     -1241.17964709
  -Hartree energ DENC   =      -173.40876511
  -exchange      EXHF   =         0.00000000
  -V(xc)+E(xc)   XCENC  =         8.02895446
  PAW double counting   =      1420.76773039    -1436.62305538
  entropy T*S    EENTRO =        -0.00431160
  eigenvalues    EBANDS =        77.50724701
  atomic energy  EATOM  =      1188.62536141
  Solvation  Ediel_sol  =         0.00000000
  ---------------------------------------------------
  free energy    TOTEN  =       -16.05464199 eV

  energy without entropy =      -16.05033038  energy(sigma->0) =      -16.05248619


--------------------------------------------------------------------------------------------------------




--------------------------------------- Iteration      1(   8)  ---------------------------------------


    POTLOK:  cpu time      0.0195: real time      0.0197
    SETDIJ:  cpu time      0.1350: real time      0.1353
    EDDIAG:  cpu time      0.0583: real time      0.0586
  RMM-DIIS:  cpu time      0.1364: real time      0.1369
    ORTHCH:  cpu time      0.0058: real time      0.0058
       DOS:  cpu time      0.0003: real time      0.0003
    CHARGE:  cpu time      0.0187: real time      0.0188
    MIXING:  cpu time      0.0009: real time      0.0009
    --------------------------------------------
      LOOP:  cpu time      0.3749: real time      0.3763

 eigenvalue-minimisations  :  1921
 total energy-change (2. order) :-0.3491292E-01  (-0.5129865E-02)
 number of electron      16.0000009 magnetization       1.2463196
 augmentation part        8.1318033 magnetization       1.0620568

 Broyden mixing:
  rms(total) = 0.44285E+00    rms(broyden)= 0.44285E+00
  rms(prec ) = 0.51369E+00
  weight for this iteration     100.00

 eigenvalues of (default mixing * dielectric matrix)
  average eigenvalue GAMMA=   0.9974
  1.4547  0.7688  0.7688

 Free energy of the ion-electron system (eV)
  ---------------------------------------------------
  alpha Z        PSCENC =       140.23184394
  Ewald energy   TEWEN  =     -1241.17964709
  -Hartree energ DENC   =      -172.41856045
  -exchange      EXHF   =         0.00000000
  -V(xc)+E(xc)   XCENC  =         7.83427105
  PAW double counting   =      1433.92570360    -1449.91654901
  entropy T*S    EENTRO =        -0.00393066
  eigenvalues    EBANDS =        76.81195230
  atomic energy  EATOM  =      1188.62536141
  Solvation  Ediel_sol  =         0.00000000
  ---------------------------------------------------
  free energy    TOTEN  =       -16.08955491 eV

  energy without entropy =      -16.08562424  energy(sigma->0) =      -16.08758958


--------------------------------------------------------------------------------------------------------




--------------------------------------- Iteration      1(   9)  ---------------------------------------


    POTLOK:  cpu time      0.0194: real time      0.0197
    SETDIJ:  cpu time      0.1349: real time      0.1352
    EDDIAG:  cpu time      0.0595: real time      0.0598
  RMM-DIIS:  cpu time      0.1386: real time      0.1390
    ORTHCH:  cpu time      0.0059: real time      0.0059
       DOS:  cpu time      0.0003: real time      0.0003
    CHARGE:  cpu time      0.0184: real time      0.0184
    MIXING:  cpu time      0.0009: real time      0.0009
    --------------------------------------------
      LOOP:  cpu time      0.3778: real time      0.3792

 eigenvalue-minimisations  :  1936
 total energy-change (2. order) :-0.1315869E+00  (-0.3502343E-02)
 number of electron      16.0000009 magnetization      -0.0537278
 augmentation part        8.1415240 magnetization      -0.0962962

 Broyden mixing:
  rms(total) = 0.40880E+00    rms(broyden)= 0.40880E+00
  rms(prec ) = 0.44591E+00
  weight for this iteration     100.00

 eigenvalues of (default mixing * dielectric matrix)
  average eigenvalue GAMMA=   1.5880
  3.6723  1.3929  0.8145  0.4723

 Free energy of the ion-electron system (eV)
  ---------------------------------------------------
  alpha Z        PSCENC =       140.23184394
  Ewald energy   TEWEN  =     -1241.17964709
  -Hartree energ DENC   =      -170.21014318
  -exchange      EXHF   =         0.00000000
  -V(xc)+E(xc)   XCENC  =         7.38728565
  PAW double counting   =      1479.21164996    -1496.39647950
  entropy T*S    EENTRO =        -0.00381489
  eigenvalues    EBANDS =        76.11280189
  atomic energy  EATOM  =      1188.62536141
  Solvation  Ediel_sol  =         0.00000000
  ---------------------------------------------------
  free energy    TOTEN  =       -16.22114182 eV

  energy without entropy =      -16.21732692  energy(sigma->0) =      -16.21923437


--------------------------------------------------------------------------------------------------------




--------------------------------------- Iteration      1(  10)  ---------------------------------------


    POTLOK:  cpu time      0.0194: real time      0.0197
    SETDIJ:  cpu time      0.1356: real time      0.1358
    EDDIAG:  cpu time      0.0580: real time      0.0583
  RMM-DIIS:  cpu time      0.1500: real time      0.1505
    ORTHCH:  cpu time      0.0059: real time      0.0059
       DOS:  cpu time      0.0003: real time      0.0003
    CHARGE:  cpu time      0.0179: real time      0.0180
    MIXING:  cpu time      0.0009: real time      0.0009
    --------------------------------------------
      LOOP:  cpu time      0.3880: real time      0.3893

 eigenvalue-minimisations  :  2113
 total energy-change (2. order) :-0.9480620E-01  (-0.9602458E-02)
 number of electron      16.0000009 magnetization       0.0910774
 augmentation part        8.1728799 magnetization       0.0935412

 Broyden mixing:
  rms(total) = 0.63017E-01    rms(broyden)= 0.62989E-01
  rms(prec ) = 0.94812E-01
  weight for this iteration     100.00

 eigenvalues of (default mixing * dielectric matrix)
  average eigenvalue GAMMA=   1.2629
  2.6666  1.6584  0.9269  0.5942  0.4685

 Free energy of the ion-electron system (eV)
  ---------------------------------------------------
  alpha Z        PSCENC =       140.23184394
  Ewald energy   TEWEN  =     -1241.17964709
  -Hartree energ DENC   =      -168.14840140
  -exchange      EXHF   =         0.00000000
  -V(xc)+E(xc)   XCENC  =         7.11217841
  PAW double counting   =      1509.12114795    -1527.34860225
  entropy T*S    EENTRO =        -0.00246037
  eigenvalues    EBANDS =        75.27263139
  atomic energy  EATOM  =      1188.62536141
  Solvation  Ediel_sol  =         0.00000000
  ---------------------------------------------------
  free energy    TOTEN  =       -16.31594801 eV

  energy without entropy =      -16.31348764  energy(sigma->0) =      -16.31471783


--------------------------------------------------------------------------------------------------------




--------------------------------------- Iteration      1(  11)  ---------------------------------------


    POTLOK:  cpu time      0.0189: real time      0.0191
    SETDIJ:  cpu time      0.1349: real time      0.1352
    EDDIAG:  cpu time      0.0579: real time      0.0582
  RMM-DIIS:  cpu time      0.1362: real time      0.1367
    ORTHCH:  cpu time      0.0058: real time      0.0058
       DOS:  cpu time      0.0003: real time      0.0003
    CHARGE:  cpu time      0.0180: real time      0.0180
    MIXING:  cpu time      0.0009: real time      0.0009
    --------------------------------------------
      LOOP:  cpu time      0.3729: real time      0.3742

 eigenvalue-minimisations  :  1920
 total energy-change (2. order) :-0.1159656E-02  (-0.5214167E-03)
 number of electron      16.0000009 magnetization       0.0148088
 augmentation part        8.1990873 magnetization       0.0139484

 Broyden mixing:
  rms(total) = 0.45418E-01    rms(broyden)= 0.45416E-01
  rms(prec ) = 0.53391E-01
  weight for this iteration     100.00

 eigenvalues of (default mixing * dielectric matrix)
  average eigenvalue GAMMA=   1.2262
  2.1874  2.1874  1.0611  0.4564  0.8021  0.6625

 Free energy of the ion-electron system (eV)
  ---------------------------------------------------
  alpha Z        PSCENC =       140.23184394
  Ewald energy   TEWEN  =     -1241.17964709
  -Hartree energ DENC   =      -167.89443398
  -exchange      EXHF   =         0.00000000
  -V(xc)+E(xc)   XCENC  =         7.09678598
  PAW double counting   =      1504.56200214    -1522.43124578
  entropy T*S    EENTRO =        -0.00239169
  eigenvalues    EBANDS =        74.67461741
  atomic energy  EATOM  =      1188.62536141
  Solvation  Ediel_sol  =         0.00000000
  ---------------------------------------------------
  free energy    TOTEN  =       -16.31710767 eV

  energy without entropy =      -16.31471598  energy(sigma->0) =      -16.31591183


--------------------------------------------------------------------------------------------------------




--------------------------------------- Iteration      1(  12)  ---------------------------------------


    POTLOK:  cpu time      0.0196: real time      0.0198
    SETDIJ:  cpu time      0.1350: real time      0.1353
    EDDIAG:  cpu time      0.0580: real time      0.0583
  RMM-DIIS:  cpu time      0.1362: real time      0.1366
    ORTHCH:  cpu time      0.0058: real time      0.0058
       DOS:  cpu time      0.0003: real time      0.0003
    CHARGE:  cpu time      0.0179: real time      0.0180
    MIXING:  cpu time      0.0009: real time      0.0009
    --------------------------------------------
      LOOP:  cpu time      0.3737: real time      0.3750

 eigenvalue-minimisations  :  1920
 total energy-change (2. order) :-0.1411689E-03  (-0.1131341E-03)
 number of electron      16.0000009 magnetization      -0.0376744
 augmentation part        8.2094944 magnetization      -0.0382508

 Broyden mixing:
  rms(total) = 0.93826E-02    rms(broyden)= 0.93804E-02
  rms(prec ) = 0.11954E-01
  weight for this iteration     100.00

 eigenvalues of (default mixing * dielectric matrix)
  average eigenvalue GAMMA=   1.2337
  2.7927  1.7574  1.1175  1.1175  0.7750  0.4587  0.6170

 Free energy of the ion-electron system (eV)
  ---------------------------------------------------
  alpha Z        PSCENC =       140.23184394
  Ewald energy   TEWEN  =     -1241.17964709
  -Hartree energ DENC   =      -167.66474684
  -exchange      EXHF   =         0.00000000
  -V(xc)+E(xc)   XCENC  =         7.08541083
  PAW double counting   =      1506.46999561    -1524.28810815
  entropy T*S    EENTRO =        -0.00263319
  eigenvalues    EBANDS =        74.40527464
  atomic energy  EATOM  =      1188.62536141
  Solvation  Ediel_sol  =         0.00000000
  ---------------------------------------------------
  free energy    TOTEN  =       -16.31724884 eV

  energy without entropy =      -16.31461565  energy(sigma->0) =      -16.31593225


--------------------------------------------------------------------------------------------------------




--------------------------------------- Iteration      1(  13)  ---------------------------------------


    POTLOK:  cpu time      0.0188: real time      0.0190
    SETDIJ:  cpu time      0.1349: real time      0.1351
    EDDIAG:  cpu time      0.0579: real time      0.0582
  RMM-DIIS:  cpu time      0.1364: real time      0.1368
    ORTHCH:  cpu time      0.0058: real time      0.0058
       DOS:  cpu time      0.0003: real time      0.0003
    CHARGE:  cpu time      0.0178: real time      0.0179
    MIXING:  cpu time      0.0009: real time      0.0009
    --------------------------------------------
      LOOP:  cpu time      0.3727: real time      0.3741

 eigenvalue-minimisations  :  1919
 total energy-change (2. order) : 0.6270997E-04  (-0.5275481E-04)
 number of electron      16.0000009 magnetization      -0.0144666
 augmentation part        8.2154353 magnetization      -0.0125282

 Broyden mixing:
  rms(total) = 0.13336E-01    rms(broyden)= 0.13335E-01
  rms(prec ) = 0.14548E-01
  weight for this iteration     100.00

 eigenvalues of (default mixing * dielectric matrix)
  average eigenvalue GAMMA=   1.2210
  2.8569  1.6001  1.6001  1.1375  0.8203  0.4611  0.6458  0.6458

 Free energy of the ion-electron system (eV)
  ---------------------------------------------------
  alpha Z        PSCENC =       140.23184394
  Ewald energy   TEWEN  =     -1241.17964709
  -Hartree energ DENC   =      -167.53713439
  -exchange      EXHF   =         0.00000000
  -V(xc)+E(xc)   XCENC  =         7.08041202
  PAW double counting   =      1508.58234398    -1526.36284006
  entropy T*S    EENTRO =        -0.00259744
  eigenvalues    EBANDS =        74.24507151
  atomic energy  EATOM  =      1188.62536141
  Solvation  Ediel_sol  =         0.00000000
  ---------------------------------------------------
  free energy    TOTEN  =       -16.31718613 eV

  energy without entropy =      -16.31458868  energy(sigma->0) =      -16.31588741


--------------------------------------------------------------------------------------------------------




--------------------------------------- Iteration      1(  14)  ---------------------------------------


    POTLOK:  cpu time      0.0187: real time      0.0190
    SETDIJ:  cpu time      0.1347: real time      0.1350
    EDDIAG:  cpu time      0.0580: real time      0.0583
  RMM-DIIS:  cpu time      0.1304: real time      0.1308
    ORTHCH:  cpu time      0.0069: real time      0.0069
       DOS:  cpu time      0.0004: real time      0.0004
    CHARGE:  cpu time      0.0196: real time      0.0197
    MIXING:  cpu time      0.0012: real time      0.0012
    --------------------------------------------
      LOOP:  cpu time      0.3700: real time      0.3713

 eigenvalue-minimisations  :  1757
 total energy-change (2. order) :-0.8433428E-04  (-0.7657401E-05)
 number of electron      16.0000009 magnetization       0.0031762
 augmentation part        8.2141740 magnetization       0.0045541

 Broyden mixing:
  rms(total) = 0.50231E-02    rms(broyden)= 0.50231E-02
  rms(prec ) = 0.57334E-02
  weight for this iteration     100.00

 eigenvalues of (default mixing * dielectric matrix)
  average eigenvalue GAMMA=   1.1901
  2.5677  1.8569  1.8569  0.9585  0.8608  0.8608  0.4601  0.6448  0.6448

 Free energy of the ion-electron system (eV)
  ---------------------------------------------------
  alpha Z        PSCENC =       140.23184394
  Ewald energy   TEWEN  =     -1241.17964709
  -Hartree energ DENC   =      -167.58382031
  -exchange      EXHF   =         0.00000000
  -V(xc)+E(xc)   XCENC  =         7.08255463
  PAW double counting   =      1508.53280932    -1526.28385259
  entropy T*S    EENTRO =        -0.00264356
  eigenvalues    EBANDS =        74.26012380
  atomic energy  EATOM  =      1188.62536141
  Solvation  Ediel_sol  =         0.00000000
  ---------------------------------------------------
  free energy    TOTEN  =       -16.31727046 eV

  energy without entropy =      -16.31462690  energy(sigma->0) =      -16.31594868


--------------------------------------------------------------------------------------------------------




--------------------------------------- Iteration      1(  15)  ---------------------------------------


    POTLOK:  cpu time      0.0198: real time      0.0200
    SETDIJ:  cpu time      0.1360: real time      0.1362
    EDDIAG:  cpu time      0.0586: real time      0.0589
  RMM-DIIS:  cpu time      0.0982: real time      0.0985
    ORTHCH:  cpu time      0.0058: real time      0.0058
       DOS:  cpu time      0.0003: real time      0.0003
    --------------------------------------------
      LOOP:  cpu time      0.3188: real time      0.3200

 eigenvalue-minimisations  :  1241
 total energy-change (2. order) :-0.3544887E-05  (-0.1812773E-05)
 number of electron      16.0000009 magnetization       0.0031762
 augmentation part        8.2141740 magnetization       0.0045541

 Free energy of the ion-electron system (eV)
  ---------------------------------------------------
  alpha Z        PSCENC =       140.23184394
  Ewald energy   TEWEN  =     -1241.17964709
  -Hartree energ DENC   =      -167.62042887
  -exchange      EXHF   =         0.00000000
  -V(xc)+E(xc)   XCENC  =         7.08427110
  PAW double counting   =      1508.29144894    -1526.01581955
  entropy T*S    EENTRO =        -0.00265262
  eigenvalues    EBANDS =        74.26834874
  atomic energy  EATOM  =      1188.62536141
  Solvation  Ediel_sol  =         0.00000000
  ---------------------------------------------------
  free energy    TOTEN  =       -16.31727401 eV

  energy without entropy =      -16.31462138  energy(sigma->0) =      -16.31594770


--------------------------------------------------------------------------------------------------------




 average (electrostatic) potential at core
  the test charge radii are     1.0103
  (the norm of the test charge is              1.0000)
       1 -42.3192       2 -42.3192
 
 
 
 E-fermi :   7.1288     XC(G=0): -13.9895     alpha+bet :-15.7252

 val. band max:        7.1115294599   @ k =   0.2500   0.0000   0.2000
 cond. band min:       7.2929988293   @ k =   0.1250   0.0000   0.4000
 fundamental gap:      0.1814693694
 Fermi energy:         7.1287667581

 spin component 1

 k-point     1 :       0.0000    0.0000    0.0000
  band No.  band energies     occupation 
      1      -1.8177      1.00000
      2       2.1499      1.00000
      3       5.5431      1.00000
      4       5.5431      1.00000
      5       5.6860      1.00000
      6       6.0352      1.00000
      7       6.0352      1.00000
      8       6.3755      1.00000
      9       6.3755      1.00000
     10       7.8637      0.00000
     11       8.0121      0.00000
     12       8.0121      0.00000
     13      16.4211      0.00000
     14      29.4624      0.00000
     15      33.2446      0.00000
     16      34.1156      0.00000

 k-point     2 :       0.1250    0.0000    0.0000
  band No.  band energies     occupation 
      1      -1.2314      1.00000
      2       2.5132      1.00000
      3       5.0243      1.00000
      4       5.6762      1.00000
      5       5.8513      1.00000
      6       5.8770      1.00000
      7       6.1307      1.00000
      8       6.1587      1.00000
      9       6.3260      1.00000
     10       6.4495      1.00000
     11       8.1127      0.00000
     12      10.4641      0.00000
     13      16.4525      0.00000
     14      26.9183      0.00000
     15      30.3642      0.00000
     16      30.4609      0.00000

 k-point     3 :       0.2500    0.0000    0.0000
  band No.  band energies     occupation 
      1       0.3316      1.00000
      2       3.0830      1.00000
      3       4.1973      1.00000
      4       4.5046      1.00000
      5       5.6393      1.00000
      6       5.7220      1.00000
      7       6.0898      1.00000
      8       6.7489      1.00000
      9       6.8824      1.00000
     10       7.0742      0.93875
     11       8.2727      0.00000
     12      13.3830      0.00000
     13      16.5691      0.00000
     14      21.6709      0.00000
     15      26.8585      0.00000
     16      28.8580      0.00000

 k-point     4 :       0.3750    0.0000    0.0000
  band No.  band energies     occupation 
      1       2.0107      1.00000
      2       2.8814      1.00000
      3       3.2508      1.00000
      4       4.7029      1.00000
      5       5.3527      1.00000
      6       5.8024      1.00000
      7       5.9363      1.00000
      8       7.7161      0.00000
      9       7.9327      0.00000
     10       8.2653      0.00000
     11       8.3709      0.00000
     12      15.2021      0.00000
     13      16.5332      0.00000
     14      18.8928      0.00000
     15      24.3090      0.00000
     16      24.6266      0.00000

 k-point     5 :       0.5000    0.0000    0.0000
  band No.  band energies     occupation 
      1       2.5371      1.00000
      2       2.6778      1.00000
      3       2.9296      1.00000
      4       5.1590      1.00000
      5       5.2123      1.00000
      6       5.6887      1.00000
      7       6.1673      1.00000
      8       8.1236      0.00000
      9       8.3634      0.00000
     10       8.4005      0.00000
     11      10.0664      0.00000
     12      12.2976      0.00000
     13      18.8826      0.00000
     14      19.6447      0.00000
     15      21.9600      0.00000
     16      23.3284      0.00000

 k-point     6 :       0.1250    0.1250    0.0000
  band No.  band energies     occupation 
      1      -0.1421      1.00000
      2       3.0554      1.00000
      3       4.4746      1.00000
      4       4.6017      1.00000
      5       5.6630      1.00000
      6       5.6912      1.00000
      7       6.3251      1.00000
      8       6.4138      1.00000
      9       6.5518      1.00000
     10       7.0048      0.99977
     11       8.1971      0.00000
     12      12.5871      0.00000
     13      16.5695      0.00000
     14      24.0795      0.00000
     15      25.0299      0.00000
     16      30.7094      0.00000

 k-point     7 :       0.2500    0.1250    0.0000
  band No.  band energies     occupation 
      1       1.6120      1.00000
      2       3.2984      1.00000
      3       3.5943      1.00000
      4       4.1522      1.00000
      5       5.2741      1.00000
      6       5.7729      1.00000
      7       5.9971      1.00000
      8       7.0367      0.99540
      9       7.5598      0.00000
     10       8.1698      0.00000
     11       8.2691      0.00000
     12      15.4792      0.00000
     13      16.6877      0.00000
     14      19.6081      0.00000
     15      22.3626      0.00000
     16      26.8198      0.00000

 k-point     8 :       0.3750    0.1250    0.0000
  band No.  band energies     occupation 
      1       2.7423      1.00000
      2       2.9659      1.00000
      3       3.0478      1.00000
      4       4.6248      1.00000
      5       5.1392      1.00000
      6       5.6566      1.00000
      7       6.1529      1.00000
      8       7.8915      0.00000
      9       8.1706      0.00000
     10       8.3045      0.00000
     11       9.8780      0.00000
     12      13.7816      0.00000
     13      18.5753      0.00000
     14      19.4837      0.00000
     15      20.8186      0.00000
     16      23.1311      0.00000

 k-point     9 :       0.2500    0.2500    0.0000
  band No.  band energies     occupation 
      1       3.0478      1.00000
      2       3.1847      1.00000
      3       3.6465      1.00000
      4       3.6667      1.00000
      5       5.0158      1.00000
      6       5.6588      1.00000
      7       6.1502      1.00000
      8       7.3565      0.00000
      9       8.1970      0.00000
     10       8.2067      0.00000
     11       9.9218      0.00000
     12      16.4166      0.00000
     13      17.1105      0.00000
     14      18.3614      0.00000
     15      19.9113      0.00000
     16      25.3489      0.00000

 k-point    10 :       0.3750    0.2500    0.0000
  band No.  band energies     occupation 
      1       3.0450      1.00000
      2       3.4242      1.00000
      3       3.4256      1.00000
      4       4.1094      1.00000
      5       5.0664      1.00000
      6       5.3501      1.00000
      7       6.4155      1.00000
      8       7.8228      0.00000
      9       8.0888      0.00000
     10       8.1783      0.00000
     11      12.0849      0.00000
     12      13.4997      0.00000
     13      16.3742      0.00000
     14      21.0392      0.00000
     15      21.0720      0.00000
     16      22.6949      0.00000

 k-point    11 :       0.0000    0.0000    0.2000
  band No.  band energies     occupation 
      1      -1.3614      1.00000
      2       2.0802      1.00000
      3       5.3988      1.00000
      4       5.3988      1.00000
      5       5.5244      1.00000
      6       5.8636      1.00000
      7       5.8636      1.00000
      8       6.6497      1.00000
      9       6.7344      1.00000
     10       6.7344      1.00000
     11       7.9965      0.00000
     12       7.9966      0.00000
     13      18.4388      0.00000
     14      29.1802      0.00000
     15      32.2945      0.00000
     16      32.4361      0.00000

 k-point    12 :       0.1250    0.0000    0.2000
  band No.  band energies     occupation 
      1      -0.7965      1.00000
      2       2.4930      1.00000
      3       5.0473      1.00000
      4       5.1020      1.00000
      5       5.5561      1.00000
      6       5.6430      1.00000
      7       6.1262      1.00000
      8       6.1292      1.00000
      9       6.6521      1.00000
     10       6.7900      1.00000
     11       8.0625      0.00000
     12       9.3933      0.00000
     13      18.6528      0.00000
     14      27.1319      0.00000
     15      30.0366      0.00000
     16      30.8135      0.00000

 k-point    13 :       0.2500    0.0000    0.2000
  band No.  band energies     occupation 
      1       0.6616      1.00000
      2       3.1887      1.00000
      3       3.9338      1.00000
      4       4.6080      1.00000
      5       5.3429      1.00000
      6       5.7949      1.00000
      7       6.0852      1.00000
      8       6.8100      1.00000
      9       7.0073      0.99970
     10       7.1100      0.70234
     11       8.1657      0.00000
     12      11.3536      0.00000
     13      19.3316      0.00000
     14      22.0633      0.00000
     15      26.7585      0.00000
     16      27.4539      0.00000

 k-point    14 :       0.3750    0.0000    0.2000
  band No.  band energies     occupation 
      1       1.9755      1.00000
      2       2.9072      1.00000
      3       3.5556      1.00000
      4       4.3458      1.00000
      5       5.5655      1.00000
      6       5.7991      1.00000
      7       6.5678      1.00000
      8       7.6710      0.00000
      9       7.7701      0.00000
     10       8.0638      0.00000
     11       8.2617      0.00000
     12      12.8408      0.00000
     13      17.4709      0.00000
     14      20.5198      0.00000
     15      23.2939      0.00000
     16      25.0222      0.00000

 k-point    15 :       0.5000    0.0000    0.2000
  band No.  band energies     occupation 
      1       2.2019      1.00000
      2       2.6408      1.00000
      3       3.7448      1.00000
      4       4.1286      1.00000
      5       5.4549      1.00000
      6       6.1159      1.00000
      7       7.1000      0.79209
      8       7.9339      0.00000
      9       8.2266      0.00000
     10       8.3458      0.00000
     11       9.5599      0.00000
     12      11.9031      0.00000
     13      17.8990      0.00000
     14      18.1322      0.00000
     15      24.0931      0.00000
     16      24.3099      0.00000

 k-point    16 :       0.1250    0.1250    0.2000
  band No.  band energies     occupation 
      1       0.2349      1.00000
      2       3.1453      1.00000
      3       4.2055      1.00000
      4       4.5640      1.00000
      5       5.4303      1.00000
      6       5.7811      1.00000
      7       5.9810      1.00000
      8       6.4980      1.00000
      9       6.9399      1.00000
     10       7.0338      0.99639
     11       8.1331      0.00000
     12      10.8616      0.00000
     13      19.1497      0.00000
     14      24.4004      0.00000
     15      25.4573      0.00000
     16      29.0284      0.00000

 k-point    17 :       0.2500    0.1250    0.2000
  band No.  band energies     occupation 
      1       1.7875      1.00000
      2       3.4161      1.00000
      3       3.5082      1.00000
      4       4.3092      1.00000
      5       5.2564      1.00000
      6       5.8024      1.00000
      7       5.9043      1.00000
      8       7.0446      0.99135
      9       7.7232      0.00000
     10       7.7560      0.00000
     11       8.4522      0.00000
     12      12.6733      0.00000
     13      19.3443      0.00000
     14      20.6715      0.00000
     15      22.8164      0.00000
     16      25.1157      0.00000

 k-point    18 :       0.3750    0.1250    0.2000
  band No.  band energies     occupation 
      1       2.4411      1.00000
      2       3.0061      1.00000
      3       3.6859      1.00000
      4       4.1737      1.00000
      5       5.1843      1.00000
      6       6.1035      1.00000
      7       6.2993      1.00000
      8       7.7401      0.00000
      9       7.9720      0.00000
     10       8.2967      0.00000
     11       9.8656      0.00000
     12      13.1144      0.00000
     13      17.2131      0.00000
     14      19.8167      0.00000
     15      21.4129      0.00000
     16      23.9489      0.00000

 k-point    19 :       0.2500    0.2500    0.2000
  band No.  band energies     occupation 
      1       3.0421      1.00000
      2       3.1211      1.00000
      3       3.7445      1.00000
      4       3.9795      1.00000
      5       5.2389      1.00000
      6       5.3825      1.00000
      7       6.1079      1.00000
      8       7.3682      0.00000
      9       7.7844      0.00000
     10       8.3243      0.00000
     11      10.1361      0.00000
     12      14.4910      0.00000
     13      17.5697      0.00000
     14      18.6622      0.00000
     15      21.6742      0.00000
     16      24.2678      0.00000

 k-point    20 :       0.3750    0.2500    0.2000
  band No.  band energies     occupation 
      1       3.0077      1.00000
      2       3.5919      1.00000
      3       3.7505      1.00000
      4       3.9134      1.00000
      5       5.0267      1.00000
      6       5.3611      1.00000
      7       6.4035      1.00000
      8       7.6751      0.00000
      9       7.8553      0.00000
     10       8.1618      0.00000
     11      12.4657      0.00000
     12      13.5113      0.00000
     13      16.5636      0.00000
     14      19.0455      0.00000
     15      19.8783      0.00000
     16      22.9807      0.00000

 k-point    21 :       0.0000    0.0000    0.4000
  band No.  band energies     occupation 
      1      -0.1116      1.00000
      2       1.3896      1.00000
      3       5.1919      1.00000
      4       5.2748      1.00000
      5       5.3459      1.00000
      6       5.3459      1.00000
      7       5.5413      1.00000
      8       5.5413      1.00000
      9       7.3413      0.00000
     10       7.3413      0.00000
     11       7.8085      0.00000
     12       7.8085      0.00000
     13      22.5938      0.00000
     14      27.0906      0.00000
     15      30.2716      0.00000
     16      30.8663      0.00000

 k-point    22 :       0.1250    0.0000    0.4000
  band No.  band energies     occupation 
      1       0.3963      1.00000
      2       1.8543      1.00000
      3       4.5921      1.00000
      4       4.9244      1.00000
      5       5.2849      1.00000
      6       5.5925      1.00000
      7       5.7068      1.00000
      8       5.8042      1.00000
      9       7.2930      0.00000
     10       7.4684      0.00000
     11       7.8088      0.00000
     12       8.2562      0.00000
     13      22.9138      0.00000
     14      27.2386      0.00000
     15      28.2332      0.00000
     16      29.2518      0.00000

 k-point    23 :       0.2500    0.0000    0.4000
  band No.  band energies     occupation 
      1       1.5461      1.00000
      2       2.6550      1.00000
      3       4.0334      1.00000
      4       4.5906      1.00000
      5       5.2136      1.00000
      6       5.7154      1.00000
      7       6.0426      1.00000
      8       6.4436      1.00000
      9       7.3849      0.00000
     10       7.8319      0.00000
     11       7.8433      0.00000
     12       9.1808      0.00000
     13      22.8029      0.00000
     14      23.8541      0.00000
     15      24.8763      0.00000
     16      28.6349      0.00000

 k-point    24 :       0.3750    0.0000    0.4000
  band No.  band energies     occupation 
      1       2.1443      1.00000
      2       2.6104      1.00000
      3       3.8697      1.00000
      4       4.3064      1.00000
      5       6.1210      1.00000
      6       6.1550      1.00000
      7       6.9601      1.00000
      8       6.9655      1.00000
      9       7.9070      0.00000
     10       8.0851      0.00000
     11       8.3224      0.00000
     12      10.1891      0.00000
     13      18.4714      0.00000
     14      19.8755      0.00000
     15      25.9205      0.00000
     16      26.9520      0.00000

 k-point    25 :       0.5000    0.0000    0.4000
  band No.  band energies     occupation 
      1       2.1409      1.00000
      2       2.5017      1.00000
      3       3.8030      1.00000
      4       4.1438      1.00000
      5       6.1318      1.00000
      6       6.6873      1.00000
      7       7.0741      0.93892
      8       8.1617      0.00000
      9       8.2442      0.00000
     10       8.2997      0.00000
     11       8.9691      0.00000
     12      10.6897      0.00000
     13      16.9533      0.00000
     14      16.9871      0.00000
     15      26.1242      0.00000
     16      27.6866      0.00000

 k-point    26 :       0.1250    0.1250    0.4000
  band No.  band energies     occupation 
      1       1.2618      1.00000
      2       2.5648      1.00000
      3       4.1159      1.00000
      4       4.6567      1.00000
      5       5.0745      1.00000
      6       5.4979      1.00000
      7       5.9840      1.00000
      8       6.2698      1.00000
      9       7.4163      0.00000
     10       7.6462      0.00000
     11       7.9105      0.00000
     12       8.9350      0.00000
     13      23.5179      0.00000
     14      25.2926      0.00000
     15      26.2900      0.00000
     16      27.5706      0.00000

 k-point    27 :       0.2500    0.1250    0.4000
  band No.  band energies     occupation 
      1       2.2626      1.00000
      2       2.8946      1.00000
      3       4.0380      1.00000
      4       4.5446      1.00000
      5       5.1308      1.00000
      6       5.5249      1.00000
      7       6.1601      1.00000
      8       6.7375      1.00000
      9       7.8701      0.00000
     10       8.0962      0.00000
     11       8.5564      0.00000
     12      10.0411      0.00000
     13      20.7482      0.00000
     14      22.2703      0.00000
     15      24.0182      0.00000
     16      25.7142      0.00000

 k-point    28 :       0.3750    0.1250    0.4000
  band No.  band energies     occupation 
      1       2.4390      1.00000
      2       2.8174      1.00000
      3       3.9075      1.00000
      4       4.4015      1.00000
      5       5.3853      1.00000
      6       6.2542      1.00000
      7       6.6859      1.00000
      8       7.0782      0.92381
      9       8.0133      0.00000
     10       8.3594      0.00000
     11      10.1630      0.00000
     12      11.4571      0.00000
     13      17.1978      0.00000
     14      18.2513      0.00000
     15      23.0255      0.00000
     16      25.0280      0.00000

 k-point    29 :       0.2500    0.2500    0.4000
  band No.  band energies     occupation 
      1       3.0261      1.00000
      2       3.0661      1.00000
      3       4.1600      1.00000
      4       4.6425      1.00000
      5       4.8046      1.00000
      6       5.2337      1.00000
      7       6.1976      1.00000
      8       6.7557      1.00000
      9       7.9900      0.00000
     10       8.3926      0.00000
     11      10.6851      0.00000
     12      12.0977      0.00000
     13      18.7363      0.00000
     14      19.5666      0.00000
     15      20.8545      0.00000
     16      21.8154      0.00000

 k-point    30 :       0.3750    0.2500    0.4000
  band No.  band energies     occupation 
      1       3.1390      1.00000
      2       3.4813      1.00000
      3       4.0419      1.00000
      4       4.2880      1.00000
      5       4.8772      1.00000
      6       5.2226      1.00000
      7       6.4877      1.00000
      8       6.8632      1.00000
      9       7.9894      0.00000
     10       8.1618      0.00000
     11      13.1271      0.00000
     12      13.4806      0.00000
     13      16.6990      0.00000
     14      17.2826      0.00000
     15      19.5478      0.00000
     16      20.9045      0.00000
 Fermi energy:         7.1287667581

 spin component 2

 k-point     1 :       0.0000    0.0000    0.0000
  band No.  band energies     occupation 
      1      -1.8185      1.00000
      2       2.1497      1.00000
      3       5.5455      1.00000
      4       5.5455      1.00000
      5       5.6865      1.00000
      6       6.0378      1.00000
      7       6.0378      1.00000
      8       6.3778      1.00000
      9       6.3778      1.00000
     10       7.8627      0.00000
     11       8.0147      0.00000
     12       8.0147      0.00000
     13      16.4216      0.00000
     14      29.4663      0.00000
     15      33.2299      0.00000
     16      34.1716      0.00000

 k-point     2 :       0.1250    0.0000    0.0000
  band No.  band energies     occupation 
      1      -1.2322      1.00000
      2       2.5131      1.00000
      3       5.0261      1.00000
      4       5.6776      1.00000
      5       5.8536      1.00000
      6       5.8795      1.00000
      7       6.1318      1.00000
      8       6.1610      1.00000
      9       6.3286      1.00000
     10       6.4512      1.00000
     11       8.1152      0.00000
[...]
     14      26.5405      0.00000
     15      27.4491      0.00000
     16      28.5058      0.00000

 k-point    23 :       0.2500    0.0000    0.4000
  band No.  band energies     occupation 
      1       1.3182      1.00000
      2       2.4258      1.00000
      3       3.8162      1.00000
      4       4.3487      1.00000
      5       4.9421      1.00000
      6       5.4185      1.00000
      7       5.7442      1.00000
      8       6.1264      1.00000
      9       7.0227      0.00000
     10       7.4454      0.00000
     11       7.4586      0.00000
     12       8.7358      0.00000
     13      22.0881      0.00000
     14      23.0869      0.00000
     15      24.1636      0.00000
     16      27.8438      0.00000

 k-point    24 :       0.3750    0.0000    0.4000
  band No.  band energies     occupation 
      1       1.9652      1.00000
      2       2.4260      1.00000
      3       3.6555      1.00000
      4       4.0737      1.00000
      5       5.8055      1.00000
      6       5.8511      1.00000
      7       6.6113      1.00000
      8       6.6189      1.00000
      9       7.5222      0.00000
     10       7.6908      0.00000
     11       7.9159      0.00000
     12       9.7197      0.00000
     13      17.7859      0.00000
     14      19.1761      0.00000
     15      25.1586      0.00000
     16      26.1686      0.00000

 k-point    25 :       0.5000    0.0000    0.4000
  band No.  band energies     occupation 
      1       1.9834      1.00000
      2       2.3319      1.00000
      3       3.5943      1.00000
      4       3.9173      1.00000
      5       5.8286      1.00000
      6       6.3510      1.00000
      7       6.7271      0.92212
      8       7.7670      0.00000
      9       7.8439      0.00000
     10       7.8966      0.00000
     11       8.5603      0.00000
     12      10.2203      0.00000
     13      16.2757      0.00000
     14      16.3103      0.00000
     15      25.3608      0.00000
     16      26.9708      0.00000

 k-point    26 :       0.1250    0.1250    0.4000
  band No.  band energies     occupation 
      1       1.0268      1.00000
      2       2.3214      1.00000
      3       3.8982      1.00000
      4       4.4154      1.00000
      5       4.8132      1.00000
      6       5.2151      1.00000
      7       5.6875      1.00000
      8       5.9597      1.00000
      9       7.0516      0.00000
     10       7.2701      0.00000
     11       7.5210      0.00000
     12       8.4995      0.00000
     13      22.7688      0.00000
     14      24.5908      0.00000
     15      25.5417      0.00000
     16      26.7852      0.00000

 k-point    27 :       0.2500    0.1250    0.4000
  band No.  band energies     occupation 
      1       2.0503      1.00000
      2       2.6898      1.00000
      3       3.8152      1.00000
      4       4.2960      1.00000
      5       4.8639      1.00000
      6       5.2372      1.00000
      7       5.8539      1.00000
      8       6.4067      1.00000
      9       7.4846      0.00000
     10       7.7008      0.00000
     11       8.1390      0.00000
     12       9.5700      0.00000
     13      20.0500      0.00000
     14      21.5533      0.00000
     15      23.2802      0.00000
     16      24.8868      0.00000

 k-point    28 :       0.3750    0.1250    0.4000
  band No.  band energies     occupation 
      1       2.2684      1.00000
      2       2.6335      1.00000
      3       3.6933      1.00000
      4       4.1632      1.00000
      5       5.1089      1.00000
      6       5.9370      1.00000
      7       6.3528      1.00000
      8       6.7298      0.91046
      9       7.6221      0.00000
     10       7.9520      0.00000
     11       9.7013      0.00000
     12      10.9636      0.00000
     13      16.5249      0.00000
     14      17.5715      0.00000
     15      22.2975      0.00000
     16      24.2678      0.00000

 k-point    29 :       0.2500    0.2500    0.4000
  band No.  band energies     occupation 
      1       2.8227      1.00000
      2       2.8796      1.00000
      3       3.9318      1.00000
      4       4.3865      1.00000
      5       4.5538      1.00000
      6       4.9556      1.00000
      7       5.8888      1.00000
      8       6.4235      1.00000
      9       7.5991      0.00000
     10       7.9837      0.00000
     11      10.1967      0.00000
     12      11.5797      0.00000
     13      18.0906      0.00000
     14      18.8768      0.00000
     15      20.1458      0.00000
     16      21.0566      0.00000

 k-point    30 :       0.3750    0.2500    0.4000
  band No.  band energies     occupation 
      1       2.9512      1.00000
      2       3.2769      1.00000
      3       3.8215      1.00000
      4       4.0585      1.00000
      5       4.6133      1.00000
      6       4.9445      1.00000
      7       6.1653      1.00000
      8       6.5253      1.00000
      9       7.5995      0.00000
     10       7.7639      0.00000
     11      12.5940      0.00000
     12      12.9301      0.00000
     13      16.0765      0.00000
     14      16.6388      0.00000
     15      18.8226      0.00000
     16      20.1742      0.00000


--------------------------------------------------------------------------------------------------------


 soft charge-density along one line, spin component           1
         0         1         2         3         4         5         6         7         8         9
 total charge-density along one line
 
 soft charge-density along one line, spin component           2
         0         1         2         3         4         5         6         7         8         9
 total charge-density along one line
 
 pseudopotential strength for first ion, spin component:           1
 -4.436  -0.000  -0.000   0.000  -0.000  -4.999  -0.000  -0.000
 -0.000  -4.451   0.000   0.000  -0.000  -0.000  -5.015   0.000
 -0.000   0.000  -4.460  -0.000   0.000  -0.000   0.000  -5.023
  0.000   0.000  -0.000  -4.451  -0.000   0.000   0.000  -0.000
 -0.000  -0.000   0.000  -0.000  -4.436  -0.000  -0.000   0.000
 -4.999  -0.000  -0.000   0.000  -0.000  -5.520  -0.000  -0.000
 -0.000  -5.015   0.000   0.000  -0.000  -0.000  -5.535   0.000
 -0.000   0.000  -5.023  -0.000   0.000  -0.000   0.000  -5.544
  0.000   0.000  -0.000  -5.015  -0.000   0.000   0.000  -0.000
 -0.000  -0.000   0.000  -0.000  -4.999  -0.000  -0.000   0.000
 -0.000  -0.000   0.003   0.000   0.000  -0.000  -0.000   0.003
 -0.000  -0.000   0.005   0.000   0.000  -0.000  -0.000   0.005
 -0.000   0.000  -0.000  -0.000  -0.002  -0.000   0.000  -0.000
 -0.000   0.000   0.000  -0.000   0.000  -0.000   0.000   0.000
 -0.002  -0.000   0.000   0.000  -0.000  -0.002  -0.000   0.000
 -0.000   0.000  -0.000  -0.000  -0.001  -0.000   0.000  -0.000
 -0.000   0.000   0.000  -0.000   0.000  -0.000   0.000   0.000
 -0.001  -0.000   0.000   0.000  -0.000  -0.001  -0.000   0.000
 pseudopotential strength for first ion, spin component:           2
 -4.436  -0.000  -0.000   0.000  -0.000  -4.999  -0.000  -0.000
 -0.000  -4.451   0.000   0.000  -0.000  -0.000  -5.015   0.000
 -0.000   0.000  -4.460  -0.000   0.000  -0.000   0.000  -5.023
  0.000   0.000  -0.000  -4.451  -0.000   0.000   0.000  -0.000
 -0.000  -0.000   0.000  -0.000  -4.436  -0.000  -0.000   0.000
 -4.999  -0.000  -0.000   0.000  -0.000  -5.520  -0.000  -0.000
 -0.000  -5.015   0.000   0.000  -0.000  -0.000  -5.535   0.000
 -0.000   0.000  -5.023  -0.000   0.000  -0.000   0.000  -5.544
  0.000   0.000  -0.000  -5.015  -0.000   0.000   0.000  -0.000
 -0.000  -0.000   0.000  -0.000  -4.999  -0.000  -0.000   0.000
 -0.000  -0.000   0.003   0.000   0.000  -0.000  -0.000   0.003
 -0.000  -0.000   0.005   0.000   0.000  -0.000  -0.000   0.005
 -0.000   0.000  -0.000  -0.000  -0.002  -0.000   0.000  -0.000
 -0.000   0.000   0.000  -0.000   0.000  -0.000   0.000   0.000
 -0.002  -0.000   0.000   0.000  -0.000  -0.002  -0.000   0.000
 -0.000   0.000  -0.000  -0.000  -0.001  -0.000   0.000  -0.000
 -0.000   0.000   0.000  -0.000   0.000  -0.000   0.000   0.000
 -0.001  -0.000   0.000   0.000  -0.000  -0.001  -0.000   0.000
 total augmentation occupancy for first ion, spin component:           1
  1.728   0.000  -0.000  -0.000   0.000  -0.961   0.000   0.000   0.000  -0.000  -0.000  -0.000  -0.000  -0.000   0.029   0.000
 -0.000   1.738   0.000   0.000  -0.000   0.000  -0.958   0.000  -0.000  -0.000  -0.000   0.000   0.000   0.000   0.000  -0.000
 -0.000   0.000   1.510  -0.000   0.000   0.000   0.000  -0.882   0.000  -0.000  -0.052   0.004   0.000   0.000   0.000  -0.000
 -0.000   0.000  -0.000   1.738  -0.000  -0.000  -0.000  -0.000  -0.958   0.000   0.000   0.000  -0.000  -0.000   0.000  -0.000
  0.000  -0.000   0.000   0.000   1.728  -0.000  -0.000  -0.000   0.000  -0.961   0.000   0.000   0.029   0.000   0.000  -0.002
 -0.961   0.000   0.000  -0.000  -0.000   1.549  -0.000  -0.000  -0.000  -0.000   0.000  -0.000   0.000  -0.000  -0.054  -0.000
 -0.000  -0.958   0.000  -0.000   0.000  -0.000   1.532  -0.000   0.000   0.000  -0.000  -0.000  -0.000   0.000  -0.000  -0.000
  0.000   0.000  -0.882  -0.000  -0.000  -0.000  -0.000   1.595   0.000   0.000   0.063  -0.002  -0.000   0.000   0.000   0.000
  0.000  -0.000  -0.000  -0.958   0.000  -0.000   0.000   0.000   1.532   0.000   0.000   0.000  -0.000  -0.000  -0.000   0.000
 -0.000  -0.000  -0.000  -0.000  -0.961  -0.000   0.000   0.000  -0.000   1.549   0.000  -0.000  -0.054   0.000  -0.000   0.003
 -0.000  -0.000  -0.052   0.000   0.000   0.000  -0.000   0.063   0.000   0.000   2.654  -0.303  -0.000   0.000  -0.000  -0.000
 -0.000   0.000   0.004   0.000   0.000  -0.000  -0.000  -0.002   0.000  -0.000  -0.303   0.039  -0.000  -0.000  -0.000  -0.000
 -0.000   0.000   0.000  -0.000   0.029   0.000  -0.000  -0.000   0.000  -0.054  -0.000  -0.000   0.340   0.000   0.000  -0.028
 -0.000   0.000   0.000  -0.000   0.000  -0.000   0.000   0.000  -0.000   0.000   0.000  -0.000   0.000   0.353   0.000   0.000
  0.029   0.000  -0.000  -0.000   0.000  -0.054   0.000   0.000   0.000  -0.000  -0.000  -0.000   0.000   0.000   0.340  -0.000
  0.000   0.000  -0.000  -0.000  -0.002  -0.000   0.000   0.000   0.000   0.003  -0.000  -0.000  -0.028   0.000  -0.000   0.003
  0.000   0.000  -0.000  -0.000   0.000   0.000  -0.000  -0.000  -0.000   0.000   0.000  -0.000  -0.000  -0.028   0.000   0.000
 -0.002  -0.000   0.000  -0.000  -0.000   0.003  -0.000   0.000  -0.000   0.000   0.000   0.000  -0.000   0.000  -0.028   0.000
 total augmentation occupancy for first ion, spin component:           2
  0.000   0.000  -0.000  -0.000   0.000   0.000  -0.000  -0.000  -0.000  -0.000   0.000  -0.000   0.000  -0.000  -0.000  -0.000
  0.000   0.000   0.000   0.000  -0.000  -0.000  -0.000   0.000  -0.000  -0.000  -0.000   0.000   0.000   0.000   0.000  -0.000
 -0.000  -0.000  -0.000  -0.000   0.000  -0.000  -0.000  -0.000  -0.000   0.000  -0.000   0.000  -0.000  -0.000   0.000   0.000
 -0.000   0.000  -0.000   0.000  -0.000   0.000  -0.000  -0.000  -0.000  -0.000   0.000  -0.000   0.000  -0.000   0.000   0.000
  0.000  -0.000   0.000  -0.000   0.000  -0.000   0.000  -0.000   0.000   0.000  -0.000   0.000  -0.000   0.000  -0.000   0.000
  0.000  -0.000   0.000  -0.000  -0.000  -0.000  -0.000  -0.000   0.000   0.000  -0.000   0.000  -0.000   0.000   0.000   0.000
 -0.000  -0.000  -0.000  -0.000   0.000   0.000   0.000  -0.000   0.000   0.000   0.000  -0.000   0.000   0.000   0.000  -0.000
 -0.000  -0.000  -0.000  -0.000  -0.000  -0.000   0.000   0.000  -0.000   0.000   0.000  -0.000   0.000  -0.000  -0.000  -0.000
 -0.000  -0.000  -0.000  -0.000  -0.000  -0.000   0.000   0.000   0.000  -0.000   0.000   0.000   0.000   0.000  -0.000  -0.000
 -0.000  -0.000   0.000  -0.000   0.000  -0.000   0.000   0.000   0.000  -0.000   0.000  -0.000   0.000   0.000   0.000  -0.000
  0.000  -0.000  -0.000   0.000  -0.000  -0.000   0.000   0.000   0.000   0.000   0.000  -0.000   0.000   0.000   0.000   0.000
 -0.000   0.000   0.000  -0.000   0.000   0.000  -0.000  -0.000   0.000  -0.000  -0.000   0.000  -0.000   0.000  -0.000   0.000
  0.000   0.000  -0.000  -0.000  -0.000  -0.000   0.000   0.000   0.000   0.000   0.000  -0.000  -0.000  -0.000  -0.000   0.000
 -0.000   0.000  -0.000  -0.000   0.000   0.000   0.000  -0.000   0.000   0.000   0.000   0.000  -0.000  -0.000  -0.000  -0.000
 -0.000  -0.000   0.000  -0.000  -0.000   0.000   0.000  -0.000   0.000   0.000   0.000  -0.000  -0.000  -0.000  -0.000   0.000
 -0.000  -0.000   0.000   0.000   0.000   0.000  -0.000  -0.000  -0.000  -0.000   0.000   0.000   0.000  -0.000   0.000  -0.000
  0.000  -0.000   0.000   0.000   0.000  -0.000   0.000   0.000   0.000   0.000   0.000   0.000  -0.000   0.000   0.000   0.000
  0.000  -0.000  -0.000   0.000   0.000  -0.000   0.000   0.000  -0.000  -0.000  -0.000   0.000   0.000   0.000   0.000  -0.000


------------------------ aborting loop because EDIFF is reached ----------------------------------------





 total charge

# of ion       s       p       d       tot
------------------------------------------
    1        0.537   0.642   6.336   7.516
    2        0.537   0.642   6.336   7.516
--------------------------------------------------
tot          1.074   1.284  12.673  15.031



 magnetization (x)

# of ion       s       p       d       tot
------------------------------------------
    1        0.000  -0.000  -0.000  -0.000
    2        0.000  -0.000  -0.000  -0.000
--------------------------------------------------
tot          0.000  -0.000  -0.000  -0.000
 
    CHARGE:  cpu time      0.0176: real time      0.0177
    FORLOC:  cpu time      0.0005: real time      0.0005
    FORNL :  cpu time      0.0223: real time      0.0223
    STRESS:  cpu time      0.1034: real time      0.1037
    FORCOR:  cpu time      0.0185: real time      0.0186
    FORHAR:  cpu time      0.0020: real time      0.0020
    MIXING:  cpu time      0.0009: real time      0.0009
    OFIELD:  cpu time      0.0000: real time      0.0000

  FORCE on cell =-STRESS in cart. coord.  units (eV):
  Direction    XX          YY          ZZ          XY          YZ          ZX
  --------------------------------------------------------------------------------------
  Alpha Z   135.95096   135.95096   135.95096
  Ewald    -415.15254  -415.15254  -398.12363     0.00000    -0.00000    -0.00000
  Hartree    55.28077    55.28078    61.50089     0.00000    -0.00000    -0.00000
  E(xc)     -78.47764   -78.47764   -78.51953     0.00000    -0.00000    -0.00000
  Local     129.61548   129.61544   107.88443    -0.00003    -0.00000    -0.00000
  n-local   -53.07200   -52.73726   -52.73805    -3.00054     1.64345     1.21819
  augment    76.07778    76.07780    75.56809     0.00002    -0.00000     0.00000
  Kinetic   152.05002   147.13140   148.45930     0.33304    -1.05400     0.00726
  Fock        0.00000     0.00000     0.00000     0.00000     0.00000     0.00000
  -------------------------------------------------------------------------------------
  Total      -0.01911    -0.01911    -0.01754    -0.00000     0.00000     0.00000
  in kB      -1.50605    -1.50605    -1.38203    -0.00000     0.00000     0.00000
  external pressure =       -1.46 kB  Pullay stress =        0.00 kB


 VOLUME and BASIS-vectors are now :
 -----------------------------------------------------------------------------
  energy-cutoff  :      520.00
  volume of cell :       20.33
      direct lattice vectors                 reciprocal lattice vectors
     2.458810458  0.000000000 -0.000000000     0.406700727  0.234808774 -0.000000000
    -1.229405229  2.129392320 -0.000000000    -0.000000000  0.469617548 -0.000000000
     0.000000000  0.000000000  3.883842368     0.000000000  0.000000000  0.257476979

  length of vectors
     2.458810458  2.458810458  3.883842368     0.469617548  0.469617548  0.257476979


 FORCES acting on ions
    electron-ion (+dipol)            ewald-force                    non-local-force                 convergence-correction
 -----------------------------------------------------------------------------------------------
   -.323E-06 0.186E-06 -.895E-07   0.746E-06 -.431E-06 -.168E-13   0.129E-16 -.443E-17 0.217E-17   0.505E-08 -.292E-08 -.399E-11
   0.322E-06 -.186E-06 -.895E-07   -.746E-06 0.431E-06 0.168E-13   -.304E-17 -.255E-17 0.543E-18   -.508E-08 0.293E-08 -.408E-11
 -----------------------------------------------------------------------------------------------
   -.355E-09 0.242E-09 -.179E-06   -.713E-14 -.350E-14 -.763E-17   0.983E-17 -.698E-17 0.271E-17   -.259E-10 0.150E-10 -.807E-11
 
 
 POSITION                                       TOTAL-FORCE (eV/Angst)
 -----------------------------------------------------------------------------------
     -0.00000      1.41959      0.97096        -0.000000      0.000000     -0.000000
      1.22941      0.70980      2.91288         0.000000     -0.000000      0.000000
 -----------------------------------------------------------------------------------
    total drift:                               -0.000000      0.000000     -0.000000


--------------------------------------------------------------------------------------------------------



  FREE ENERGIE OF THE ION-ELECTRON SYSTEM (eV)
  ---------------------------------------------------
  free  energy   TOTEN  =       -16.33488339 eV

  energy  without entropy=      -16.33214730  energy(sigma->0) =      -16.33351534
 d Force = 0.0000000E+00[ 0.000E+00, 0.000E+00]  d Energy = 0.5428904E-01-0.543E-01
 d Force = 0.0000000E+00[ 0.000E+00, 0.000E+00]  d Ewald  = 0.2231520E+02-0.223E+02
 


--------------------------------------------------------------------------------------------------------


    POTLOK:  cpu time      0.1541: real time      0.1544


--------------------------------------------------------------------------------------------------------




--------------------------------------------------------------------------------------------------------


  
 reached required accuracy - stopping structural energy minimisation
 writing wavefunctions
     LOOP+:  cpu time      3.4583: real time      3.4732
    4ORBIT:  cpu time      0.0000: real time      0.0000



 total charge

# of ion       s       p       d       tot
------------------------------------------
    1        0.537   0.642   6.336   7.516
    2        0.537   0.642   6.336   7.516
--------------------------------------------------
tot          1.074   1.284  12.673  15.031



 magnetization (x)

# of ion       s       p       d       tot
------------------------------------------
    1        0.000  -0.000  -0.000  -0.000
    2        0.000  -0.000  -0.000  -0.000
--------------------------------------------------
tot          0.000  -0.000  -0.000  -0.000
 

 total amount of memory used by VASP MPI-rank0    37625. kBytes
=======================================================================

   base                                    :      30000. kBytes
   nonl-proj                               :       2384. kBytes
   fftplans                                :        714. kBytes
   grid                                    :       2223. kBytes
   one-center                              :         62. kBytes
   wavefun                                 :       2242. kBytes
 
  
  
 General timing and accounting informations for this job:
 ========================================================
  
                  Total CPU time used (sec):       13.078
                            User time (sec):       12.900
                          System time (sec):        0.178
                         Elapsed time (sec):       13.499
  
                   Maximum memory used (kb):      206076.
                   Average memory used (kb):          N/A
  
                          Minor page faults:        34462
                          Major page faults:           68
                 Voluntary context switches:         1506
