-16.33351534
 mpi-ranks, with    1 threads/rank, on    1 nodes
 distrk:  each k-point on    4 cores,    1 groups
 distr:  one band on    1 cores,    4 groups
 vasp.6.5.1 10Mar25 (build May 31 2025 23:02:25) complex                        
  
 POSCAR found type information on POSCAR Fe
 POSCAR found :  1 types and       2 ions
 Reading from existing POTCAR
 scaLAPACK will be used
 Reading from existing POTCAR
 LDA part: xc-table for (Slater+PW92), standard interpolation
 -----------------------------------------------------------------------------
|                                                                             |
|           W    W    AA    RRRRR   N    N  II  N    N   GGGG   !!!           |
|           W    W   A  A   R    R  NN   N  II  NN   N  G    G  !!!           |
|           W    W  A    A  R    R  N N  N  II  N N  N  G       !!!           |
|           W WW W  AAAAAA  RRRRR   N  N N  II  N  N N  G  GGG   !            |
|           WW  WW  A    A  R   R   N   NN  II  N   NN  G    G                |
|           W    W  A    A  R    R  N    N  II  N    N   GGGG   !!!           |
|                                                                             |
|     The requested file  could not be found or opened for reading            |
|     k-point information. Automatic k-point generation is used as a          |
|     fallback, which may lead to unwanted results.                           |
|                                                                             |
 -----------------------------------------------------------------------------

 INCAR ok, starting setup
 POSCAR ok, starting setup
 FFT: planning ... GRIDC
 FFT: planning ... GRID_SOFT
 FFT: planning ... GRID
 WAVECAR not read
 entering main loop
       N       E                     dE             d eps       ncg     rms          rms(c)
DAV:   1     0.727163467551E+02    0.72716E+02   -0.75782E+03  1984   0.136E+03
DAV:   2    -0.139637392852E+02   -0.86680E+02   -0.79784E+02  1920   0.227E+02
DAV:   3    -0.159920202468E+02   -0.20283E+01   -0.19692E+01  2392   0.475E+01
DAV:   4    -0.160045853294E+02   -0.12565E-01   -0.12564E-01  2272   0.323E+00
DAV:   5    -0.160047328441E+02   -0.14751E-03   -0.14751E-03  2408   0.339E-01    0.216E+01
RMM:   6    -0.157149325505E+02    0.28980E+00   -0.55321E+00  1920   0.327E+01    0.434E+00
RMM:   7    -0.160546419865E+02   -0.33971E+00   -0.23764E-01  1920   0.625E+00    0.573E+00
RMM:   8    -0.160895549082E+02   -0.34913E-01   -0.51299E-02  1921   0.176E+00    0.443E+00
RMM:   9    -0.162211418175E+02   -0.13159E+00   -0.35023E-02  1936   0.190E+00    0.409E+00
RMM:  10    -0.163159480135E+02   -0.94806E-01   -0.96025E-02  2113   0.269E+00    0.630E-01
RMM:  11    -0.163171076696E+02   -0.11597E-02   -0.52142E-03  1920   0.103E+00    0.454E-01
RMM:  12    -0.163172488386E+02   -0.14117E-03   -0.11313E-03  1920   0.376E-01    0.938E-02
RMM:  13    -0.163171861286E+02    0.62710E-04   -0.52755E-04  1919   0.200E-01    0.133E-01
RMM:  14    -0.163172704629E+02   -0.84334E-04   -0.76574E-05  1757   0.107E-01    0.502E-02
RMM:  15    -0.163172740078E+02   -0.35449E-05   -0.18128E-05  1241   0.471E-02
   1 F= -.16317274E+02 E0= -.16315948E+02  d E =-.163173E+02  mag=     0.0013
 curvature:   0.00 expect dE= 0.000E+00 dE for cont linesearch  0.000E+00
 trial: gam= 0.00000 g(F)=  0.313E-46 g(S)=  0.105E+00 ort = 0.000E+00 (trialstep = 0.100E+01)
 search vector abs. value=  0.105E+00
 bond charge predicted
       N       E                     dE             d eps       ncg     rms          rms(c)
DAV:   1    -0.174163390760E+02   -0.10991E+01   -0.15740E+01  2072   0.770E+01    0.856E+00
RMM:   2    -0.164183205220E+02    0.99802E+00   -0.33464E+00  1920   0.245E+01    0.274E+00
RMM:   3    -0.163015456147E+02    0.11677E+00   -0.30548E-01  1920   0.811E+00    0.145E+00
RMM:   4    -0.162827420508E+02    0.18804E-01   -0.29510E-02  1920   0.133E+00    0.439E-01
RMM:   5    -0.162804832578E+02    0.22588E-02   -0.92361E-03  1920   0.141E+00    0.927E-02
RMM:   6    -0.162807756943E+02   -0.29244E-03   -0.12472E-03  1925   0.379E-01    0.119E-01
RMM:   7    -0.162805900259E+02    0.18567E-03   -0.54133E-04  1937   0.322E-01    0.133E-02
RMM:   8    -0.162805943519E+02   -0.43260E-05   -0.80322E-05  1634   0.721E-02
   2 F= -.16280594E+02 E0= -.16279170E+02  d E =0.366797E-01  mag=     0.0000
 trial-energy change:    0.036680  1 .order    0.030726   -0.105414    0.166866
 step:   0.3570(harm=  0.3872)  dis= 0.00000  next Energy=   -16.335821 (dE=-0.185E-01)
 bond charge predicted
       N       E                     dE             d eps       ncg     rms          rms(c)
DAV:   1    -0.167828103407E+02   -0.50222E+00   -0.61181E+00  1920   0.459E+01    0.552E+00
RMM:   2    -0.163713671234E+02    0.41144E+00   -0.11868E+00  1920   0.150E+01    0.126E+00
RMM:   3    -0.163434271664E+02    0.27940E-01   -0.10340E-01  1920   0.478E+00    0.709E-01
RMM:   4    -0.163355360992E+02    0.78911E-02   -0.13743E-02  1920   0.870E-01    0.200E-01
RMM:   5    -0.163348436298E+02    0.69247E-03   -0.62767E-03  1920   0.119E+00    0.688E-02
RMM:   6    -0.163349041080E+02   -0.60478E-04   -0.55172E-04  1940   0.214E-01    0.479E-02
RMM:   7    -0.163348797153E+02    0.24393E-04   -0.16792E-04  1906   0.180E-01    0.355E-03
RMM:   8    -0.163348833897E+02   -0.36745E-05   -0.33038E-05  1516   0.433E-02
   3 F= -.16334883E+02 E0= -.16333515E+02  d E =-.176094E-01  mag=    -0.0000
 curvature:  -0.19 expect dE=-0.484E-05 dE for cont linesearch -0.481E-05
 trial: gam= 0.00000 g(F)=  0.331E-47 g(S)=  0.250E-04 ort =-0.162E-02 (trialstep = 0.871E+00)
 search vector abs. value=  0.250E-04
 reached required accuracy - stopping structural energy minimisation
 writing wavefunctions
