<?xml version="1.0" encoding="ISO-8859-1"?>
<modeling>
 <generator>
  <i name="program" type="string">vasp </i>
  <i name="version" type="string">6.5.1  </i>
  <i name="subversion" type="string">10Mar25 (build May 31 2025 23:02:25) complex                          parallel </i>
  <i name="platform" type="string">LinuxIFC </i>
  <i name="date" type="string">2026 01 18 </i>
  <i name="time" type="string">23:07:48 </i>
 </generator>
 <incar>
  <i type="string" name="PREC">accurate</i>
  <i type="string" name="ALGO">fast</i>
  <i type="int" name="ISPIN">     2</i>
  <i type="int" name="IBRION">     2</i>
  <i name="EDIFF">      0.00001000</i>
  <i name="EDIFFG">     -0.03000000</i>
  <i type="int" name="NSW">   100</i>
  <i type="int" name="ISIF">     3</i>
  <i name="ENCUT">    520.00000000</i>
  <v name="MAGMOM">      4.00000000      4.00000000</v>
  <i type="string" name="EFERMI">midgap</i>
  <i type="int" name="ISMEAR">     0</i>
  <i name="SIGMA">      0.05000000</i>
  <i name="KSPACING">      0.40000000</i>
  <i type="int" name="LORBIT">    11</i>
  <i type="logical" name="LASPH"> T  </i>
  <i type="logical" name="GGA_COMPAT"> F  </i>
  <i type="string" name="GGA">PE</i>
  <i type="int" name="IVDW">     0</i>
 </incar>
 <primitive_cell>
  <structure name="primitive_cell" >
   <crystal>
    <varray name="basis" >
     <v>       2.43415759       0.00000000       0.00000000 </v>
     <v>      -1.21707879       2.10804231       0.00000000 </v>
     <v>       0.00000000       0.00000000       3.84193447 </v>
    </varray>
    <i name="volume">     19.71414596 </i>
    <varray name="rec_basis" >
     <v>       0.41081974       0.23718689       0.00000000 </v>
     <v>       0.00000000       0.47437378       0.00000000 </v>
     <v>       0.00000000       0.00000000       0.26028554 </v>
    </varray>
   </crystal>
   <varray name="positions" >
    <v>       0.33333333       0.66666667       0.25000000 </v>
    <v>       0.66666667       0.33333333       0.75000000 </v>
   </varray>
  </structure>
  <varray name="primitive_index" >
   <v type="int" >        1 </v>
   <v type="int" >        2 </v>
  </varray>
 </primitive_cell>
 <kpoints>
  <generation param="Gamma">
   <v type="int" name="divisions">       8        8        5 </v>
   <v name="usershift">      0.00000000       0.00000000       0.00000000 </v>
   <v name="genvec1">      0.12500000       0.00000000       0.00000000 </v>
   <v name="genvec2">      0.00000000       0.12500000       0.00000000 </v>
   <v name="genvec3">      0.00000000       0.00000000       0.20000000 </v>
   <v name="shift">      0.00000000       0.00000000       0.00000000 </v>
  </generation>
  <varray name="kpointlist" >
   <v>       0.00000000       0.00000000       0.00000000 </v>
   <v>       0.12500000       0.00000000       0.00000000 </v>
   <v>       0.25000000       0.00000000       0.00000000 </v>
   <v>       0.37500000       0.00000000       0.00000000 </v>
   <v>       0.50000000       0.00000000       0.00000000 </v>
   <v>       0.12500000       0.12500000       0.00000000 </v>
   <v>       0.25000000       0.12500000       0.00000000 </v>
   <v>       0.37500000       0.12500000       0.00000000 </v>
   <v>       0.25000000       0.25000000       0.00000000 </v>
   <v>       0.37500000       0.25000000       0.00000000 </v>
   <v>       0.00000000       0.00000000       0.20000000 </v>
   <v>       0.12500000       0.00000000       0.20000000 </v>
   <v>       0.25000000       0.00000000       0.20000000 </v>
   <v>       0.37500000       0.00000000       0.20000000 </v>
   <v>       0.50000000       0.00000000       0.20000000 </v>
   <v>       0.12500000       0.12500000       0.20000000 </v>
   <v>       0.25000000       0.12500000       0.20000000 </v>
   <v>       0.37500000       0.12500000       0.20000000 </v>
   <v>       0.25000000       0.25000000       0.20000000 </v>
   <v>       0.37500000       0.25000000       0.20000000 </v>
   <v>       0.00000000       0.00000000       0.40000000 </v>
   <v>       0.12500000       0.00000000       0.40000000 </v>
   <v>       0.25000000       0.00000000       0.40000000 </v>
   <v>       0.37500000       0.00000000       0.40000000 </v>
   <v>       0.50000000       0.00000000       0.40000000 </v>
   <v>       0.12500000       0.12500000       0.40000000 </v>
   <v>       0.25000000       0.12500000       0.40000000 </v>
   <v>       0.37500000       0.12500000       0.40000000 </v>
   <v>       0.25000000       0.25000000       0.40000000 </v>
   <v>       0.37500000       0.25000000       0.40000000 </v>
  </varray>
  <varray name="weights" >
   <v>       0.00312500 </v>
   <v>       0.01875000 </v>
   <v>       0.01875000 </v>
   <v>       0.01875000 </v>
   <v>       0.00937500 </v>
   <v>       0.01875000 </v>
   <v>       0.03750000 </v>
   <v>       0.03750000 </v>
   <v>       0.01875000 </v>
   <v>       0.01875000 </v>
   <v>       0.00625000 </v>
   <v>       0.03750000 </v>
   <v>       0.03750000 </v>
   <v>       0.03750000 </v>
   <v>       0.01875000 </v>
   <v>       0.03750000 </v>
   <v>       0.07500000 </v>
   <v>       0.07500000 </v>
   <v>       0.03750000 </v>
   <v>       0.03750000 </v>
   <v>       0.00625000 </v>
   <v>       0.03750000 </v>
   <v>       0.03750000 </v>
   <v>       0.03750000 </v>
   <v>       0.01875000 </v>
   <v>       0.03750000 </v>
   <v>       0.07500000 </v>
   <v>       0.07500000 </v>
   <v>       0.03750000 </v>
   <v>       0.03750000 </v>
  </varray>
 </kpoints>
 <parameters>
  <separator name="general" >
   <i type="string" name="SYSTEM">unknown system</i>
   <i type="logical" name="LCOMPAT"> F  </i>
  </separator>
  <separator name="electronic" >
   <i type="string" name="PREC">accura</i>
   <i name="ENMAX">    520.00000000</i>
   <i name="ENAUG">    511.36800000</i>
   <i name="EDIFF">      0.00001000</i>
   <i type="int" name="IALGO">    68</i>
   <i type="int" name="IWAVPR">    11</i>
   <i type="int" name="NBANDS">    16</i>
   <i type="int" name="NBANDSLOW">    -1</i>
   <i type="int" name="NBANDSHIGH">    -1</i>
   <i name="NELECT">     16.00000000</i>
   <i type="int" name="TURBO">     0</i>
   <i type="int" name="IRESTART">     0</i>
   <i type="int" name="NREBOOT">     0</i>
   <i type="int" name="NMIN">     0</i>
   <i name="EREF">      0.00000000</i>
   <separator name="electronic smearing" >
    <i type="int" name="ISMEAR">     0</i>
    <i name="SIGMA">      0.05000000</i>
    <i name="KSPACING">      0.40000000</i>
    <i type="logical" name="KGAMMA"> T  </i>
    <i type="logical" name="KBLOWUP"> T  </i>
   </separator>
   <separator name="electronic projectors" >
    <i type="logical" name="LREAL"> F  </i>
    <v name="ROPT">      0.00000000</v>
    <i type="int" name="LMAXPAW">  -100</i>
    <i type="int" name="LMAXMIX">     2</i>
    <i type="logical" name="NLSPLINE"> F  </i>
   </separator>
   <separator name="electronic startup" >
    <i type="int" name="ISTART">     0</i>
    <i type="int" name="ICHARG">     2</i>
    <i type="int" name="INIWAV">     1</i>
   </separator>
   <separator name="electronic spin" >
    <i type="int" name="ISPIN">     2</i>
    <i type="logical" name="LNONCOLLINEAR"> F  </i>
    <v name="MAGMOM">      4.00000000      4.00000000</v>
    <i name="NUPDOWN">     -1.00000000</i>
    <i type="logical" name="LSORBIT"> F  </i>
    <v name="SAXIS">      0.00000000      0.00000000      1.00000000</v>
    <i type="logical" name="LSPIRAL"> F  </i>
    <v name="QSPIRAL">      0.00000000      0.00000000      0.00000000</v>
    <i type="logical" name="LZEROZ"> F  </i>
   </separator>
   <separator name="electronic exchange-correlation" >
    <i type="logical" name="LASPH"> T  </i>
   </separator>
   <separator name="electronic convergence" >
    <i type="int" name="NELM">    60</i>
    <i type="int" name="NELMDL">    -5</i>
    <i type="int" name="NELMIN">     2</i>
    <i name="ENINI">    520.00000000</i>
    <separator name="electronic convergence detail" >
     <i type="logical" name="LDIAG"> T  </i>
     <i type="logical" name="LSUBROT"> F  </i>
     <i type="logical" name="LROBUST"> F  </i>
     <i type="int" name="ISEARCH">     0</i>
     <i name="WEIMIN">      0.00100000</i>
     <i name="EBREAK">      0.00000016</i>
     <i name="DEPER">      0.30000000</i>
     <i type="int" name="NRMM">     4</i>
     <i name="TIME">      0.40000000</i>
    </separator>
   </separator>
   <separator name="electronic mixer" >
    <i name="AMIX">      0.40000000</i>
    <i name="BMIX">      1.00000000</i>
    <i name="AMIN">      0.10000000</i>
    <i name="AMIX_MAG">      1.60000000</i>
    <i name="BMIX_MAG">      1.00000000</i>
    <separator name="electronic mixer details" >
     <i type="int" name="IMIX">     4</i>
     <i type="logical" name="MIXFIRST"> F  </i>
     <i type="int" name="MAXMIX">   -45</i>
     <i name="WC">    100.00000000</i>
     <i type="int" name="INIMIX">     1</i>
     <i type="int" name="MIXPRE">     1</i>
     <i type="int" name="MREMOVE">     5</i>
    </separator>
   </separator>
   <separator name="electronic dipolcorrection" >
    <i type="logical" name="LDIPOL"> F  </i>
    <i type="logical" name="LMONO"> F  </i>
    <i type="int" name="IDIPOL">     0</i>
    <i name="EPSILON">      1.00000000</i>
    <v name="DIPOL">   -100.00000000   -100.00000000   -100.00000000</v>
    <i name="EFIELD">      0.00000000</i>
    <i type="logical" name="LVACPOTAV"> F  </i>
   </separator>
  </separator>
  <separator name="grids" >
   <i type="int" name="NGX">    18</i>
   <i type="int" name="NGY">    18</i>
   <i type="int" name="NGZ">    30</i>
   <i type="int" name="NGXF">    36</i>
   <i type="int" name="NGYF">    36</i>
   <i type="int" name="NGZF">    60</i>
   <i type="logical" name="ADDGRID"> F  </i>
  </separator>
  <separator name="ionic" >
   <i type="int" name="NSW">   100</i>
   <i type="int" name="IBRION">     2</i>
   <i type="int" name="MDALGO">     0</i>
   <i type="int" name="ISIF">     3</i>
   <i name="PSTRESS">      0.00000000</i>
   <i name="EDIFFG">     -0.03000000</i>
   <i type="int" name="NFREE">     1</i>
   <i name="POTIM">      0.50000000</i>
   <i name="SMASS">     -3.00000000</i>
   <i name="SCALEE">      1.00000000</i>
  </separator>
  <separator name="ionic md" >
   <i name="TEBEG">      0.00010000</i>
   <i name="TEEND">      0.00010000</i>
   <i type="int" name="NBLOCK">     1</i>
   <i type="int" name="KBLOCK">   100</i>
   <i type="int" name="NPACO">   256</i>
   <i name="APACO">     10.00000000</i>
  </separator>
  <separator name="symmetry" >
   <i type="int" name="ISYM">     2</i>
   <i name="SYMPREC">      0.00001000</i>
  </separator>
  <separator name="dos" >
   <i type="int" name="LORBIT">    11</i>
   <v name="RWIGS">     -1.00000000</v>
   <i type="int" name="NEDOS">   301</i>
   <i name="EMIN">     10.00000000</i>
   <i name="EMAX">    -10.00000000</i>
   <i name="EFERMI">      0.00000000</i>
  </separator>
  <separator name="writing" >
   <i type="int" name="NWRITE">     2</i>
   <i type="logical" name="LWAVE"> T  </i>
   <i type="logical" name="LDOWNSAMPLE"> F  </i>
   <i type="logical" name="LCHARG"> T  </i>
   <i type="logical" name="LPARD"> F  </i>
   <i type="logical" name="LVTOT"> F  </i>
   <i type="logical" name="LVHAR"> F  </i>
   <i type="logical" name="LELF"> F  </i>
   <i type="logical" name="LOPTICS"> F  </i>
   <v name="STM">      0.00000000      0.00000000      0.00000000      0.00000000      0.00000000      0.00000000      0.00000000</v>
  </separator>
  <separator name="performance" >
   <i type="int" name="NPAR">     4</i>
   <i type="int" name="NSIM">     4</i>
   <i type="int" name="NBLK">    -1</i>
   <i type="logical" name="LPLANE"> T  </i>
   <i type="logical" name="LSCALAPACK"> T  </i>
   <i type="logical" name="LSCAAWARE"> F  </i>
   <i type="logical" name="LSCALU"> F  </i>
   <i type="logical" name="LASYNC"> F  </i>
   <i type="logical" name="LORBITALREAL"> F  </i>
  </separator>
  <separator name="miscellaneous" >
   <i type="int" name="IDIOT">     3</i>
   <i type="int" name="PHON_NSTRUCT">    -1</i>
   <i type="logical" name="LMUSIC"> F  </i>
   <v name="POMASS">     55.84700000</v>
   <v name="DARWINR">      0.00000000</v>
   <v name="DARWINV">      1.00000000</v>
   <i type="logical" name="LCORR"> T  </i>
  </separator>
  <i type="logical" name="GGA_COMPAT"> F  </i>
  <i type="logical" name="LBERRY"> F  </i>
  <i type="int" name="ICORELEVEL">     0</i>
  <i type="logical" name="LDAU"> F  </i>
  <i type="int" name="I_CONSTRAINED_M">     0</i>
  <separator name="electronic exchange-correlation" >
   <i type="string" name="GGA    ">PE</i>
   <i type="string" name="XC_C">1</i>
   <i type="int" name="VOSKOWN">     0</i>
   <i type="logical" name="LHFCALC"> F  </i>
   <i type="string" name="PRECFOCK"></i>
   <i type="logical" name="LSYMGRAD"> F  </i>
   <i type="logical" name="LHFONE"> F  </i>
   <i type="logical" name="LRHFCALC"> F  </i>
   <i type="logical" name="LTHOMAS"> F  </i>
   <i type="logical" name="LMODELHF"> F  </i>
   <i type="logical" name="LFOCKACE"> F  </i>
   <i name="ENCUT4O">     -1.00000000</i>
   <i type="int" name="EXXOEP">     0</i>
   <i type="int" name="FOURORBIT">     0</i>
   <i name="AEXX">      0.00000000</i>
   <i name="HFALPHA">      0.00000000</i>
   <i name="MCALPHA">      0.00000000</i>
   <i name="ALDAX">      1.00000000</i>
   <i name="AGGAX">      1.00000000</i>
   <i name="AMGGAX">      1.00000000</i>
   <i name="ALDAC">      1.00000000</i>
   <i name="AGGAC">      1.00000000</i>
   <i name="AMGGAC">      1.00000000</i>
   <i type="int" name="NKREDX">     1</i>
   <i type="int" name="NKREDY">     1</i>
   <i type="int" name="NKREDZ">     1</i>
   <i type="logical" name="SHIFTRED"> F  </i>
   <i type="logical" name="ODDONLY"> F  </i>
   <i type="logical" name="EVENONLY"> F  </i>
   <i type="int" name="LMAXFOCK">     0</i>
   <i type="int" name="NMAXFOCKAE">     0</i>
   <i type="logical" name="LFOCKAEDFT"> F  </i>
   <i name="HFSCREEN">      0.00000000</i>
   <i name="HFSCREENC">      0.00000000</i>
   <i type="int" name="NBANDSGWLOW">     0</i>
  </separator>
  <separator name="vdW DFT" >
   <i type="logical" name="LUSE_VDW"> F  </i>
   <i type="int" name="IVDW_NL">    -1</i>
   <i type="logical" name="LSPIN_VDW"> F  </i>
   <i name="ZAB_VDW">     -0.84910000</i>
   <i name="GAMMA_VDW">      1.39626340</i>
   <i name="ALPHA_VDW">      0.00000000</i>
   <i name="PARAM1">      0.12340000</i>
   <i name="PARAM2">      1.00000000</i>
   <i name="BPARAM">      6.30000000</i>
   <i name="CPARAM">      0.00930000</i>
  </separator>
  <separator name="model GW" >
   <i type="int" name="MODEL_GW">     0</i>
   <i name="MODEL_EPS0">      5.91424379</i>
   <i name="MODEL_ALPHA">      1.00000000</i>
  </separator>
  <separator name="linear response parameters" >
   <i type="logical" name="LEPSILON"> F  </i>
   <i type="logical" name="LRPA"> F  </i>
   <i type="logical" name="LNABLA"> F  </i>
   <i type="logical" name="LVEL"> F  </i>
   <i name="CSHIFT">      0.10000000</i>
   <i name="OMEGAMAX">     -1.00000000</i>
   <i name="DEG_THRESHOLD">      0.00200000</i>
   <i name="RTIME">     -0.10000000</i>
   <i name="WPLASMAI">      0.00000000</i>
   <v name="DFIELD">      0.00000000      0.00000000      0.00000000</v>
   <v name="WPLASMA">      0.00000000      0.00000000      0.00000000      0.00000000      0.00000000      0.00000000      0.00000000      0.00000000      0.00000000</v>
  </separator>
  <separator name="orbital magnetization" >
   <i type="logical" name="NUCIND"> F  </i>
   <v name="MAGPOS">      0.00000000      0.00000000      0.00000000</v>
   <i type="logical" name="LNICSALL"> T  </i>
   <i type="logical" name="ORBITALMAG"> F  </i>
   <i type="logical" name="LMAGBLOCH"> F  </i>
   <i type="logical" name="LCHIMAG"> F  </i>
   <i type="logical" name="LGAUGE"> T  </i>
   <i type="int" name="MAGATOM">     0</i>
   <v name="MAGDIPOL">      0.00000000      0.00000000      0.00000000</v>
   <v name="AVECCONST">      0.00000000      0.00000000      0.00000000</v>
  </separator>
  <separator name="response functions" >
   <i type="logical" name="LALL_IN_ONE"> F  </i>
   <i type="int" name="IALL_IN_ONE">    -1</i>
   <i type="int" name="NBANDS_WAVE">    -1</i>
   <i type="logical" name="LFINITE_TEMPERATURE"> F  </i>
   <i type="logical" name="LADDER"> F  </i>
   <i type="logical" name="LRPAFORCE"> F  </i>
   <i type="logical" name="LFXC"> F  </i>
   <i type="logical" name="LHARTREE"> T  </i>
   <i type="int" name="IBSE">     2</i>
   <v type="int" name="KPOINT">    -1     0     0     0</v>
   <i type="logical" name="LTCTC"> F  </i>
   <i type="logical" name="LTCTE"> F  </i>
   <i type="logical" name="LTETE"> F  </i>
   <i type="logical" name="LTRIPLET"> F  </i>
   <i type="logical" name="LFXCEPS"> F  </i>
   <i type="logical" name="LFXHEG"> F  </i>
   <i type="int" name="NATURALO">     2</i>
   <i type="logical" name="LHOLEGF"> F  </i>
   <i type="logical" name="L2ORDER"> F  </i>
   <i type="logical" name="LDMP1"> F  </i>
   <i type="logical" name="LMP2LT"> F  </i>
   <i type="logical" name="LSMP2LT"> F  </i>
   <i type="logical" name="LGWLF"> F  </i>
   <i name="ENCUTGW">     -1.60000002</i>
   <i name="ENCUTGWSOFT">     -1.60000002</i>
   <i name="ENCUTLF">     -1.00000000</i>
   <i type="logical" name="ESF_SPLINES"> F  </i>
   <i name="ESF_CONV">      0.01000000</i>
   <i type="int" name="ESF_NINTER">    15</i>
   <i type="int" name="LMAXMP2">    -1</i>
   <i name="SCISSOR">      0.00000000</i>
   <i type="int" name="NOMEGA">     0</i>
   <i type="int" name="NOMEGAR">     0</i>
   <i type="int" name="NBANDSGW">    -1</i>
   <i type="int" name="NBANDSO">    -1</i>
   <i type="int" name="NBANDSV">    -1</i>
   <i type="int" name="NELMGW">     1</i>
   <i type="int" name="NELMHF">     1</i>
   <i type="int" name="DIM">     3</i>
   <i type="int" name="IESPILON">     4</i>
   <i type="int" name="ANTIRES">     0</i>
   <i name="OMEGAMAX">    -30.00000000</i>
   <i name="OMEGAMIN">    -30.00000000</i>
   <i name="OMEGATL">   -200.00000000</i>
   <i type="int" name="OMEGAGRID">     0</i>
   <i name="CSHIFT">     -0.10000000</i>
   <i type="logical" name="LSELFENERGY"> F  </i>
   <i type="logical" name="LSPECTRAL"> F  </i>
   <i type="logical" name="LSPECTRALGW"> F  </i>
   <i type="logical" name="LSINGLES"> F  </i>
   <i type="logical" name="LFERMIGW"> F  </i>
   <i type="logical" name="ODDONLYGW"> F  </i>
   <i type="logical" name="EVENONLYGW"> F  </i>
   <i type="int" name="NKREDLFX">     1</i>
   <i type="int" name="NKREDLFY">     1</i>
   <i type="int" name="NKREDLFZ">     1</i>
   <i type="int" name="MAXMEM">  2800</i>
   <i type="int" name="TELESCOPE">     0</i>
   <i type="int" name="NTAUPAR">    -1</i>
   <i type="int" name="NOMEGAPAR">    -1</i>
   <i name="DAMP_NEWTON">      0.80000001</i>
   <i name="LAMBDA">      1.00000000</i>
  </separator>
  <separator name="External order field" >
   <i name="OFIELD_KAPPA">      0.00000000</i>
   <v name="OFIELD_K">      0.00000000      0.00000000      0.00000000</v>
   <i name="OFIELD_Q6_NEAR">      0.00000000</i>
   <i name="OFIELD_Q6_FAR">      0.00000000</i>
   <i name="OFIELD_A">      0.00000000</i>
  </separator>
  <separator name="optional k-points parameters" >
   <i type="int" name="KPOINTS_OPT_MODE">     1</i>
   <i type="logical" name="LKPOINTS_OPT"> F  </i>
  </separator>
 </parameters>
 <atominfo>
  <atoms>       2 </atoms>
  <types>       1 </types>
  <array name="atoms" >
   <dimension dim="1">ion</dimension>
   <field type="string">element</field>
   <field type="int">atomtype</field>
   <set>
    <rc><c>Fe</c><c>   1</c></rc>
    <rc><c>Fe</c><c>   1</c></rc>
   </set>
  </array>
  <array name="atomtypes" >
   <dimension dim="1">type</dimension>
   <field type="int">atomspertype</field>
   <field type="string">element</field>
   <field>mass</field>
   <field>valence</field>
   <field type="string">pseudopotential</field>
   <set>
    <rc><c>   2</c><c>Fe</c><c>     55.84700000</c><c>      8.00000000</c><c>  PAW_PBE Fe 06Sep2000                  </c></rc>
   </set>
  </array>
 </atominfo>
 <structure name="initialpos" >
  <crystal>
   <varray name="basis" >
    <v>       2.43415759       0.00000000       0.00000000 </v>
    <v>      -1.21707879       2.10804231       0.00000000 </v>
    <v>       0.00000000       0.00000000       3.84193447 </v>
   </varray>
   <i name="volume">     19.71414596 </i>
   <varray name="rec_basis" >
    <v>       0.41081974       0.23718689       0.00000000 </v>
    <v>       0.00000000       0.47437378       0.00000000 </v>
    <v>       0.00000000       0.00000000       0.26028554 </v>
   </varray>
  </crystal>
  <varray name="positions" >
   <v>       0.33333333       0.66666667       0.25000000 </v>
   <v>       0.66666667       0.33333333       0.75000000 </v>
  </varray>
 </structure>
 <calculation>
  <scstep>
   <time name="dav">    0.23    0.23</time>
   <time name="total">    0.39    0.39</time>
   <energy>
    <i name="alphaZ">    140.23184394 </i>
    <i name="ewald">  -1241.17964709 </i>
    <i name="hartreedc">   -202.05310945 </i>
    <i name="XCdc">     12.94034756 </i>
    <i name="pawpsdc">   1105.78361136 </i>
    <i name="pawaedc">  -1121.29561652 </i>
    <i name="eentropy">     -0.00186219 </i>
    <i name="bandstr">    189.66541774 </i>
    <i name="atom">   1188.62536141 </i>
    <i name="e_fr_energy">     72.71634676 </i>
    <i name="e_wo_entrp">     72.71820895 </i>
    <i name="e_0_energy">     72.71727785 </i>
   </energy>
  </scstep>
  <scstep>
   <time name="dav">    0.22    0.22</time>
   <time name="total">    0.22    0.23</time>
   <energy>
    <i name="e_fr_energy">    -13.96373929 </i>
    <i name="e_wo_entrp">    -13.95916503 </i>
    <i name="e_0_energy">    -13.96145216 </i>
   </energy>
  </scstep>
  <scstep>
   <time name="dav">    0.27    0.27</time>
   <time name="total">    0.27    0.27</time>
   <energy>
    <i name="e_fr_energy">    -15.99202025 </i>
    <i name="e_wo_entrp">    -15.98514841 </i>
    <i name="e_0_energy">    -15.98858433 </i>
   </energy>
  </scstep>
  <scstep>
   <time name="dav">    0.26    0.26</time>
   <time name="total">    0.26    0.26</time>
   <energy>
    <i name="e_fr_energy">    -16.00458533 </i>
    <i name="e_wo_entrp">    -15.99771624 </i>
    <i name="e_0_energy">    -16.00115078 </i>
   </energy>
  </scstep>
  <scstep>
   <time name="dav">    0.27    0.27</time>
   <time name="total">    0.29    0.29</time>
   <energy>
    <i name="e_fr_energy">    -16.00473284 </i>
    <i name="e_wo_entrp">    -15.99786371 </i>
    <i name="e_0_energy">    -16.00129828 </i>
   </energy>
  </scstep>
  <scstep>
   <time name="diag">    0.06    0.06</time>
   <time name="diis">    0.14    0.14</time>
   <time name="orth">    0.01    0.01</time>
   <time name="total">    0.38    0.38</time>
   <energy>
    <i name="e_fr_energy">    -15.71493255 </i>
    <i name="e_wo_entrp">    -15.70695452 </i>
    <i name="e_0_energy">    -15.71094354 </i>
   </energy>
  </scstep>
  <scstep>
   <time name="diag">    0.06    0.06</time>
   <time name="diis">    0.14    0.14</time>
   <time name="orth">    0.01    0.01</time>
   <time name="total">    0.38    0.38</time>
   <energy>
    <i name="e_fr_energy">    -16.05464199 </i>
    <i name="e_wo_entrp">    -16.05033038 </i>
    <i name="e_0_energy">    -16.05248619 </i>
   </energy>
  </scstep>
  <scstep>
   <time name="diag">    0.06    0.06</time>
   <time name="diis">    0.14    0.14</time>
   <time name="orth">    0.01    0.01</time>
   <time name="total">    0.37    0.38</time>
   <energy>
    <i name="e_fr_energy">    -16.08955491 </i>
    <i name="e_wo_entrp">    -16.08562424 </i>
    <i name="e_0_energy">    -16.08758958 </i>
   </energy>
  </scstep>
  <scstep>
   <time name="diag">    0.06    0.06</time>
   <time name="diis">    0.14    0.14</time>
   <time name="orth">    0.01    0.01</time>
   <time name="total">    0.38    0.38</time>
   <energy>
    <i name="e_fr_energy">    -16.22114182 </i>
    <i name="e_wo_entrp">    -16.21732692 </i>
    <i name="e_0_energy">    -16.21923437 </i>
   </energy>
  </scstep>
  <scstep>
   <time name="diag">    0.06    0.06</time>
   <time name="diis">    0.15    0.15</time>
   <time name="orth">    0.01    0.01</time>
   <time name="total">    0.39    0.39</time>
   <energy>
    <i name="e_fr_energy">    -16.31594801 </i>
    <i name="e_wo_entrp">    -16.31348764 </i>
    <i name="e_0_energy">    -16.31471783 </i>
   </energy>
  </scstep>
  <scstep>
   <time name="diag">    0.06    0.06</time>
   <time name="diis">    0.14    0.14</time>
   <time name="orth">    0.01    0.01</time>
   <time name="total">    0.37    0.37</time>
   <energy>
    <i name="e_fr_energy">    -16.31710767 </i>
    <i name="e_wo_entrp">    -16.31471598 </i>
    <i name="e_0_energy">    -16.31591183 </i>
   </energy>
  </scstep>
  <scstep>
   <time name="diag">    0.06    0.06</time>
   <time name="diis">    0.14    0.14</time>
   <time name="orth">    0.01    0.01</time>
   <time name="total">    0.37    0.38</time>
   <energy>
    <i name="e_fr_energy">    -16.31724884 </i>
    <i name="e_wo_entrp">    -16.31461565 </i>
    <i name="e_0_energy">    -16.31593225 </i>
   </energy>
  </scstep>
  <scstep>
   <time name="diag">    0.06    0.06</time>
   <time name="diis">    0.14    0.14</time>
   <time name="orth">    0.01    0.01</time>
   <time name="total">    0.37    0.37</time>
   <energy>
    <i name="e_fr_energy">    -16.31718613 </i>
    <i name="e_wo_entrp">    -16.31458868 </i>
    <i name="e_0_energy">    -16.31588741 </i>
   </energy>
  </scstep>
  <scstep>
   <time name="diag">    0.06    0.06</time>
   <time name="diis">    0.13    0.13</time>
   <time name="orth">    0.01    0.01</time>
   <time name="total">    0.37    0.37</time>
   <energy>
    <i name="e_fr_energy">    -16.31727046 </i>
    <i name="e_wo_entrp">    -16.31462690 </i>
    <i name="e_0_energy">    -16.31594868 </i>
   </energy>
  </scstep>
  <scstep>
   <time name="diag">    0.06    0.06</time>
   <time name="diis">    0.10    0.10</time>
   <time name="orth">    0.01    0.01</time>
   <time name="total">    0.32    0.32</time>
   <energy>
    <i name="alphaZ">    140.23184394 </i>
    <i name="ewald">  -1241.17964709 </i>
    <i name="hartreedc">   -167.62042887 </i>
    <i name="XCdc">      7.08427110 </i>
    <i name="pawpsdc">   1508.29144894 </i>
    <i name="pawaedc">  -1526.01581955 </i>
    <i name="eentropy">     -0.00265262 </i>
    <i name="bandstr">     74.26834874 </i>
    <i name="atom">   1188.62536141 </i>
    <i name="e_fr_energy">    -16.31727401 </i>
    <i name="e_wo_entrp">    -16.31462138 </i>
    <i name="e_0_energy">    -16.31594770 </i>
   </energy>
  </scstep>
  <structure>
   <crystal>
    <varray name="basis" >
     <v>       2.43415759       0.00000000       0.00000000 </v>
     <v>      -1.21707879       2.10804231       0.00000000 </v>
     <v>       0.00000000       0.00000000       3.84193447 </v>
    </varray>
    <i name="volume">     19.71414596 </i>
    <varray name="rec_basis" >
     <v>       0.41081974       0.23718689       0.00000000 </v>
     <v>       0.00000000       0.47437378       0.00000000 </v>
     <v>       0.00000000       0.00000000       0.26028554 </v>
    </varray>
   </crystal>
   <varray name="positions" >
    <v>       0.33333333       0.66666667       0.25000000 </v>
    <v>       0.66666667       0.33333333       0.75000000 </v>
   </varray>
  </structure>
  <varray name="forces" >
   <v>      -0.00000000       0.00000000      -0.00000000 </v>
   <v>       0.00000000      -0.00000000       0.00000000 </v>
  </varray>
  <varray name="stress" >
   <v>      95.57375388       0.00000000      -0.00000000 </v>
   <v>       0.00000000      95.57375388      -0.00000000 </v>
   <v>       0.00000000       0.00000000     102.93564942 </v>
  </varray>
  <energy>
   <i name="e_fr_energy">    -16.31727401 </i>
   <i name="e_wo_entrp">    -16.31462138 </i>
   <i name="e_0_energy">    -16.31594770 </i>
  </energy>
  <time name="totalsc">    5.73    5.75</time>
 </calculation>
 <calculation>
  <scstep>
   <time name="dav">    0.24    0.24</time>
   <time name="total">    0.41    0.41</time>
   <energy>
    <i name="alphaZ">    128.67108628 </i>
    <i name="ewald">  -1206.11264915 </i>
    <i name="hartreedc">   -162.88061847 </i>
    <i name="XCdc">      5.53937066 </i>
    <i name="pawpsdc">   1508.22303204 </i>
    <i name="pawaedc">  -1525.94615130 </i>
    <i name="eentropy">     -0.00233469 </i>
    <i name="bandstr">     46.46656416 </i>
    <i name="atom">   1188.62536141 </i>
    <i name="e_fr_energy">    -17.41633908 </i>
    <i name="e_wo_entrp">    -17.41400438 </i>
    <i name="e_0_energy">    -17.41517173 </i>
   </energy>
  </scstep>
  <scstep>
   <time name="diag">    0.06    0.06</time>
   <time name="diis">    0.14    0.14</time>
   <time name="orth">    0.01    0.01</time>
   <time name="total">    0.37    0.37</time>
   <energy>
    <i name="e_fr_energy">    -16.41832052 </i>
    <i name="e_wo_entrp">    -16.41562077 </i>
    <i name="e_0_energy">    -16.41697064 </i>
   </energy>
  </scstep>
  <scstep>
   <time name="diag">    0.06    0.06</time>
   <time name="diis">    0.14    0.14</time>
   <time name="orth">    0.01    0.01</time>
   <time name="total">    0.37    0.37</time>
   <energy>
    <i name="e_fr_energy">    -16.30154561 </i>
    <i name="e_wo_entrp">    -16.29912700 </i>
    <i name="e_0_energy">    -16.30033631 </i>
   </energy>
  </scstep>
  <scstep>
   <time name="diag">    0.06    0.06</time>
   <time name="diis">    0.14    0.14</time>
   <time name="orth">    0.01    0.01</time>
   <time name="total">    0.37    0.37</time>
   <energy>
    <i name="e_fr_energy">    -16.28274205 </i>
    <i name="e_wo_entrp">    -16.27989847 </i>
    <i name="e_0_energy">    -16.28132026 </i>
   </energy>
  </scstep>
  <scstep>
   <time name="diag">    0.06    0.06</time>
   <time name="diis">    0.14    0.14</time>
   <time name="orth">    0.01    0.01</time>
   <time name="total">    0.37    0.37</time>
   <energy>
    <i name="e_fr_energy">    -16.28048326 </i>
    <i name="e_wo_entrp">    -16.27763613 </i>
    <i name="e_0_energy">    -16.27905969 </i>
   </energy>
  </scstep>
  <scstep>
   <time name="diag">    0.06    0.06</time>
   <time name="diis">    0.14    0.14</time>
   <time name="orth">    0.01    0.01</time>
   <time name="total">    0.37    0.37</time>
   <energy>
    <i name="e_fr_energy">    -16.28077569 </i>
    <i name="e_wo_entrp">    -16.27791788 </i>
    <i name="e_0_energy">    -16.27934679 </i>
   </energy>
  </scstep>
  <scstep>
   <time name="diag">    0.06    0.06</time>
   <time name="diis">    0.14    0.14</time>
   <time name="orth">    0.01    0.01</time>
   <time name="total">    0.38    0.38</time>
   <energy>
    <i name="e_fr_energy">    -16.28059003 </i>
    <i name="e_wo_entrp">    -16.27774058 </i>
    <i name="e_0_energy">    -16.27916530 </i>
   </energy>
  </scstep>
  <scstep>
   <time name="diag">    0.06    0.06</time>
   <time name="diis">    0.12    0.12</time>
   <time name="orth">    0.01    0.01</time>
   <time name="total">    0.34    0.34</time>
   <energy>
    <i name="alphaZ">    128.67108628 </i>
    <i name="ewald">  -1206.11264915 </i>
    <i name="hartreedc">   -180.10384033 </i>
    <i name="XCdc">      6.53869376 </i>
    <i name="pawpsdc">   1414.09755733 </i>
    <i name="pawaedc">  -1431.02951957 </i>
    <i name="eentropy">     -0.00284798 </i>
    <i name="bandstr">     63.03556389 </i>
    <i name="atom">   1188.62536141 </i>
    <i name="e_fr_energy">    -16.28059435 </i>
    <i name="e_wo_entrp">    -16.27774637 </i>
    <i name="e_0_energy">    -16.27917036 </i>
   </energy>
  </scstep>
  <structure>
   <crystal>
    <varray name="basis" >
     <v>       2.50320636       0.00000000      -0.00000000 </v>
     <v>      -1.25160318       2.16784029      -0.00000000 </v>
     <v>       0.00000000       0.00000000       3.95931183 </v>
    </varray>
    <i name="volume">     21.48540997 </i>
    <varray name="rec_basis" >
     <v>       0.39948764       0.23064430      -0.00000000 </v>
     <v>      -0.00000000       0.46128859      -0.00000000 </v>
     <v>       0.00000000       0.00000000       0.25256914 </v>
    </varray>
   </crystal>
   <varray name="positions" >
    <v>       0.33333333       0.66666667       0.25000000 </v>
    <v>       0.66666667       0.33333333       0.75000000 </v>
   </varray>
  </structure>
  <varray name="forces" >
   <v>       0.00000000      -0.00000000       0.00000000 </v>
   <v>      -0.00000000       0.00000000      -0.00000000 </v>
  </varray>
  <varray name="stress" >
   <v>    -138.77020696      -0.00000000      -0.00000000 </v>
   <v>      -0.00000000    -138.77020696      -0.00000000 </v>
   <v>       0.00000000      -0.00000000    -149.59622134 </v>
  </varray>
  <energy>
   <i name="e_fr_energy">    -16.28059435 </i>
   <i name="e_wo_entrp">    -16.27774637 </i>
   <i name="e_0_energy">    -16.27917036 </i>
  </energy>
  <time name="totalsc">    3.46    3.48</time>
 </calculation>
 <calculation>
  <scstep>
   <time name="dav">    0.22    0.23</time>
   <time name="total">    0.40    0.40</time>
   <energy>
    <i name="alphaZ">    135.95096115 </i>
    <i name="ewald">  -1228.42785367 </i>
    <i name="hartreedc">   -183.44222462 </i>
    <i name="XCdc">      7.55989930 </i>
    <i name="pawpsdc">   1414.10095867 </i>
    <i name="pawaedc">  -1431.03381100 </i>
    <i name="eentropy">     -0.00267827 </i>
    <i name="bandstr">     79.88657668 </i>
    <i name="atom">   1188.62536141 </i>
    <i name="e_fr_energy">    -16.78281034 </i>
    <i name="e_wo_entrp">    -16.78013207 </i>
    <i name="e_0_energy">    -16.78147121 </i>
   </energy>
  </scstep>
  <scstep>
   <time name="diag">    0.06    0.06</time>
   <time name="diis">    0.14    0.14</time>
   <time name="orth">    0.01    0.01</time>
   <time name="total">    0.38    0.38</time>
   <energy>
    <i name="e_fr_energy">    -16.37136712 </i>
    <i name="e_wo_entrp">    -16.36909490 </i>
    <i name="e_0_energy">    -16.37023101 </i>
   </energy>
  </scstep>
  <scstep>
   <time name="diag">    0.06    0.06</time>
   <time name="diis">    0.14    0.14</time>
   <time name="orth">    0.01    0.01</time>
   <time name="total">    0.37    0.37</time>
   <energy>
    <i name="e_fr_energy">    -16.34342717 </i>
    <i name="e_wo_entrp">    -16.34071790 </i>
    <i name="e_0_energy">    -16.34207253 </i>
   </energy>
  </scstep>
  <scstep>
   <time name="diag">    0.06    0.06</time>
   <time name="diis">    0.14    0.14</time>
   <time name="orth">    0.01    0.01</time>
   <time name="total">    0.37    0.37</time>
   <energy>
    <i name="e_fr_energy">    -16.33553610 </i>
    <i name="e_wo_entrp">    -16.33282478 </i>
    <i name="e_0_energy">    -16.33418044 </i>
   </energy>
  </scstep>
  <scstep>
   <time name="diag">    0.06    0.06</time>
   <time name="diis">    0.14    0.14</time>
   <time name="orth">    0.01    0.01</time>
   <time name="total">    0.38    0.38</time>
   <energy>
    <i name="e_fr_energy">    -16.33484363 </i>
    <i name="e_wo_entrp">    -16.33210724 </i>
    <i name="e_0_energy">    -16.33347544 </i>
   </energy>
  </scstep>
  <scstep>
   <time name="diag">    0.06    0.06</time>
   <time name="diis">    0.14    0.14</time>
   <time name="orth">    0.01    0.01</time>
   <time name="total">    0.38    0.38</time>
   <energy>
    <i name="e_fr_energy">    -16.33490411 </i>
    <i name="e_wo_entrp">    -16.33217322 </i>
    <i name="e_0_energy">    -16.33353867 </i>
   </energy>
  </scstep>
  <scstep>
   <time name="diag">    0.06    0.06</time>
   <time name="diis">    0.14    0.14</time>
   <time name="orth">    0.01    0.01</time>
   <time name="total">    0.37    0.37</time>
   <energy>
    <i name="e_fr_energy">    -16.33487972 </i>
    <i name="e_wo_entrp">    -16.33214362 </i>
    <i name="e_0_energy">    -16.33351167 </i>
   </energy>
  </scstep>
  <scstep>
   <time name="diag">    0.06    0.06</time>
   <time name="diis">    0.12    0.12</time>
   <time name="orth">    0.01    0.01</time>
   <time name="total">    0.34    0.34</time>
   <energy>
    <i name="alphaZ">    135.95096115 </i>
    <i name="ewald">  -1228.42785367 </i>
    <i name="hartreedc">   -172.05166377 </i>
    <i name="XCdc">      6.88202423 </i>
    <i name="pawpsdc">   1471.50428874 </i>
    <i name="pawaedc">  -1488.92750768 </i>
    <i name="eentropy">     -0.00273609 </i>
    <i name="bandstr">     70.11224231 </i>
    <i name="atom">   1188.62536141 </i>
    <i name="e_fr_energy">    -16.33488339 </i>
    <i name="e_wo_entrp">    -16.33214730 </i>
    <i name="e_0_energy">    -16.33351534 </i>
   </energy>
  </scstep>
  <structure>
   <crystal>
    <varray name="basis" >
     <v>       2.45881046       0.00000000      -0.00000000 </v>
     <v>      -1.22940523       2.12939232      -0.00000000 </v>
     <v>       0.00000000       0.00000000       3.88384237 </v>
    </varray>
    <i name="volume">     20.33491354 </i>
    <varray name="rec_basis" >
     <v>       0.40670073       0.23480877      -0.00000000 </v>
     <v>      -0.00000000       0.46961755      -0.00000000 </v>
     <v>       0.00000000       0.00000000       0.25747698 </v>
    </varray>
   </crystal>
   <varray name="positions" >
    <v>       0.33333333       0.66666667       0.25000000 </v>
    <v>       0.66666667       0.33333333       0.75000000 </v>
   </varray>
  </structure>
  <varray name="forces" >
   <v>      -0.00000000       0.00000000      -0.00000000 </v>
   <v>       0.00000000      -0.00000000       0.00000000 </v>
  </varray>
  <varray name="stress" >
   <v>      -1.50605203      -0.00000000       0.00000000 </v>
   <v>      -0.00000000      -1.50605203       0.00000000 </v>
   <v>       0.00000000       0.00000000      -1.38203361 </v>
  </varray>
  <energy>
   <i name="e_fr_energy">    -16.33488339 </i>
   <i name="e_wo_entrp">    -16.33214730 </i>
   <i name="e_0_energy">    -16.33351534 </i>
  </energy>
  <time name="totalsc">    3.46    3.47</time>
  <eigenvalues>
   <array>
    <dimension dim="1">band</dimension>
    <dimension dim="2">kpoint</dimension>
    <dimension dim="3">spin</dimension>
    <field>eigene</field>
    <field>occ</field>
    <set>
     <set comment="spin 1">
      <set comment="kpoint 1">
       <r>   -1.9964    1.0000 </r>
       <r>    1.9819    1.0000 </r>
       <r>    5.2652    1.0000 </r>
       <r>    5.2652    1.0000 </r>
       <r>    5.3935    1.0000 </r>
       <r>    5.7325    1.0000 </r>
       <r>    5.7325    1.0000 </r>
       <r>    6.0612    1.0000 </r>
       <r>    6.0612    1.0000 </r>
       <r>    7.4815    0.0000 </r>
       <r>    7.6222    0.0000 </r>
       <r>    7.6222    0.0000 </r>
       <r>   15.7300    0.0000 </r>
       <r>   28.8440    0.0000 </r>
       <r>   32.5226    0.0000 </r>
       <r>   33.2259    0.0000 </r>
      </set>
      <set comment="kpoint 2">
       <r>   -1.4241    1.0000 </r>
       <r>    2.3350    1.0000 </r>
       <r>    4.7690    1.0000 </r>
       <r>    5.3834    1.0000 </r>
       <r>    5.5556    1.0000 </r>
       <r>    5.5847    1.0000 </r>
       <r>    5.8204    1.0000 </r>
       <r>    5.8548    1.0000 </r>
       <r>    6.0106    1.0000 </r>
       <r>    6.1243    1.0000 </r>
       <r>    7.7171    0.0000 </r>
       <r>    9.9966    0.0000 </r>
       <r>   15.7673    0.0000 </r>
       <r>   26.1977    0.0000 </r>
       <r>   29.5099    0.0000 </r>
       <r>   29.6685    0.0000 </r>
      </set>
      <set comment="kpoint 3">
       <r>    0.1094    1.0000 </r>
       <r>    2.8959    1.0000 </r>
       <r>    3.9657    1.0000 </r>
       <r>    4.2689    1.0000 </r>
       <r>    5.3492    1.0000 </r>
       <r>    5.4383    1.0000 </r>
       <r>    5.7810    1.0000 </r>
       <r>    6.4183    1.0000 </r>
       <r>    6.5383    1.0000 </r>
       <r>    6.7259    0.9271 </r>
       <r>    7.8683    0.0000 </r>
       <r>   12.8360    0.0000 </r>
       <r>   15.9066    0.0000 </r>
       <r>   20.9570    0.0000 </r>
       <r>   26.0806    0.0000 </r>
       <r>   28.1000    0.0000 </r>
      </set>
      <set comment="kpoint 4">
       <r>    1.7940    1.0000 </r>
       <r>    2.7090    1.0000 </r>
       <r>    3.0645    1.0000 </r>
       <r>    4.4405    1.0000 </r>
       <r>    5.0855    1.0000 </r>
       <r>    5.5037    1.0000 </r>
       <r>    5.6312    1.0000 </r>
       <r>    7.3413    0.0000 </r>
       <r>    7.5460    0.0000 </r>
       <r>    7.8606    0.0000 </r>
       <r>    7.9610    0.0000 </r>
       <r>   14.6136    0.0000 </r>
       <r>   15.9168    0.0000 </r>
       <r>   18.1874    0.0000 </r>
       <r>   23.5966    0.0000 </r>
       <r>   23.9250    0.0000 </r>
      </set>
      <set comment="kpoint 5">
       <r>    2.3848    1.0000 </r>
       <r>    2.4735    1.0000 </r>
       <r>    2.7596    1.0000 </r>
       <r>    4.8683    1.0000 </r>
       <r>    4.9513    1.0000 </r>
       <r>    5.3937    1.0000 </r>
       <r>    5.8523    1.0000 </r>
       <r>    7.7292    0.0000 </r>
       <r>    7.9570    0.0000 </r>
       <r>    7.9890    0.0000 </r>
       <r>    9.6028    0.0000 </r>
       <r>   11.7574    0.0000 </r>
       <r>   18.2213    0.0000 </r>
       <r>   18.9584    0.0000 </r>
       <r>   21.2848    0.0000 </r>
       <r>   22.6443    0.0000 </r>
      </set>
      <set comment="kpoint 6">
       <r>   -0.3579    1.0000 </r>
       <r>    2.8633    1.0000 </r>
       <r>    4.2442    1.0000 </r>
       <r>    4.3515    1.0000 </r>
       <r>    5.3810    1.0000 </r>
       <r>    5.4015    1.0000 </r>
       <r>    6.0077    1.0000 </r>
       <r>    6.0908    1.0000 </r>
       <r>    6.2296    1.0000 </r>
       <r>    6.6586    0.9996 </r>
       <r>    7.7966    0.0000 </r>
       <r>   12.0601    0.0000 </r>
       <r>   15.8961    0.0000 </r>
       <r>   23.3750    0.0000 </r>
       <r>   24.2494    0.0000 </r>
       <r>   29.9785    0.0000 </r>
      </set>
      <set comment="kpoint 7">
       <r>    1.3741    1.0000 </r>
       <r>    3.1090    1.0000 </r>
       <r>    3.3923    1.0000 </r>
       <r>    3.9274    1.0000 </r>
       <r>    5.0081    1.0000 </r>
       <r>    5.4765    1.0000 </r>
       <r>    5.6927    1.0000 </r>
       <r>    6.6870    0.9947 </r>
       <r>    7.1919    0.0000 </r>
       <r>    7.7710    0.0000 </r>
       <r>    7.8641    0.0000 </r>
       <r>   14.8829    0.0000 </r>
       <r>   16.0539    0.0000 </r>
       <r>   18.9137    0.0000 </r>
       <r>   21.6488    0.0000 </r>
       <r>   26.1047    0.0000 </r>
      </set>
      <set comment="kpoint 8">
       <r>    2.5416    1.0000 </r>
       <r>    2.7801    1.0000 </r>
       <r>    2.8746    1.0000 </r>
       <r>    4.3599    1.0000 </r>
       <r>    4.8791    1.0000 </r>
       <r>    5.3643    1.0000 </r>
       <r>    5.8399    1.0000 </r>
       <r>    7.5052    0.0000 </r>
       <r>    7.7733    0.0000 </r>
       <r>    7.8973    0.0000 </r>
       <r>    9.4164    0.0000 </r>
       <r>   13.2146    0.0000 </r>
       <r>   17.9182    0.0000 </r>
       <r>   18.7980    0.0000 </r>
       <r>   20.1465    0.0000 </r>
       <r>   22.4412    0.0000 </r>
      </set>
      <set comment="kpoint 9">
       <r>    2.8056    1.0000 </r>
       <r>    3.0081    1.0000 </r>
       <r>    3.4374    1.0000 </r>
       <r>    3.4596    1.0000 </r>
       <r>    4.7578    1.0000 </r>
       <r>    5.3683    1.0000 </r>
       <r>    5.8392    1.0000 </r>
       <r>    6.9924    0.0000 </r>
       <r>    7.7978    0.0000 </r>
       <r>    7.8039    0.0000 </r>
       <r>    9.4562    0.0000 </r>
       <r>   15.8099    0.0000 </r>
       <r>   16.4942    0.0000 </r>
       <r>   17.7061    0.0000 </r>
       <r>   19.1974    0.0000 </r>
       <r>   24.6911    0.0000 </r>
      </set>
      <set comment="kpoint 10">
       <r>    2.8787    1.0000 </r>
       <r>    3.2034    1.0000 </r>
       <r>    3.2264    1.0000 </r>
       <r>    3.8696    1.0000 </r>
       <r>    4.8049    1.0000 </r>
       <r>    5.0719    1.0000 </r>
       <r>    6.0935    1.0000 </r>
       <r>    7.4385    0.0000 </r>
       <r>    7.6929    0.0000 </r>
       <r>    7.7765    0.0000 </r>
       <r>   11.5767    0.0000 </r>
       <r>   12.9252    0.0000 </r>
       <r>   15.7695    0.0000 </r>
       <r>   20.3433    0.0000 </r>
       <r>   20.3624    0.0000 </r>
       <r>   22.0054    0.0000 </r>
      </set>
      <set comment="kpoint 11">
       <r>   -1.5516    1.0000 </r>
       <r>    1.8969    1.0000 </r>
       <r>    5.1279    1.0000 </r>
       <r>    5.1279    1.0000 </r>
       <r>    5.2396    1.0000 </r>
       <r>    5.5697    1.0000 </r>
       <r>    5.5697    1.0000 </r>
       <r>    6.2933    1.0000 </r>
       <r>    6.4026    1.0000 </r>
       <r>    6.4026    1.0000 </r>
       <r>    7.6059    0.0000 </r>
       <r>    7.6059    0.0000 </r>
       <r>   17.7305    0.0000 </r>
       <r>   28.5964    0.0000 </r>
       <r>   31.5688    0.0000 </r>
       <r>   31.6107    0.0000 </r>
      </set>
      <set comment="kpoint 12">
       <r>   -0.9994    1.0000 </r>
       <r>    2.2987    1.0000 </r>
       <r>    4.7903    1.0000 </r>
       <r>    4.8287    1.0000 </r>
       <r>    5.2732    1.0000 </r>
       <r>    5.3620    1.0000 </r>
       <r>    5.8141    1.0000 </r>
       <r>    5.8210    1.0000 </r>
       <r>    6.3242    1.0000 </r>
       <r>    6.4527    1.0000 </r>
       <r>    7.6682    0.0000 </r>
       <r>    8.9454    0.0000 </r>
       <r>   17.9485    0.0000 </r>
       <r>   26.4232    0.0000 </r>
       <r>   29.2843    0.0000 </r>
       <r>   29.9509    0.0000 </r>
      </set>
      <set comment="kpoint 13">
       <r>    0.4372    1.0000 </r>
       <r>    2.9858    1.0000 </r>
       <r>    3.7098    1.0000 </r>
       <r>    4.3667    1.0000 </r>
       <r>    5.0684    1.0000 </r>
       <r>    5.5080    1.0000 </r>
       <r>    5.7730    1.0000 </r>
       <r>    6.4754    1.0000 </r>
       <r>    6.6635    0.9994 </r>
       <r>    6.7571    0.7161 </r>
       <r>    7.7659    0.0000 </r>
       <r>   10.8409    0.0000 </r>
       <r>   18.6407    0.0000 </r>
       <r>   21.3435    0.0000 </r>
       <r>   26.0276    0.0000 </r>
       <r>   26.6621    0.0000 </r>
      </set>
      <set comment="kpoint 14">
       <r>    1.7801    1.0000 </r>
       <r>    2.7309    1.0000 </r>
       <r>    3.3384    1.0000 </r>
       <r>    4.1111    1.0000 </r>
       <r>    5.2886    1.0000 </r>
       <r>    5.5015    1.0000 </r>
       <r>    6.2293    1.0000 </r>
       <r>    7.2965    0.0000 </r>
       <r>    7.3926    0.0000 </r>
       <r>    7.6687    0.0000 </r>
       <r>    7.8578    0.0000 </r>
       <r>   12.3049    0.0000 </r>
       <r>   16.8057    0.0000 </r>
       <r>   19.8174    0.0000 </r>
       <r>   22.5736    0.0000 </r>
       <r>   24.2893    0.0000 </r>
      </set>
      <set comment="kpoint 15">
       <r>    2.0384    1.0000 </r>
       <r>    2.4799    1.0000 </r>
       <r>    3.5246    1.0000 </r>
       <r>    3.8915    1.0000 </r>
       <r>    5.1828    1.0000 </r>
       <r>    5.8039    1.0000 </r>
       <r>    6.7461    0.8110 </r>
       <r>    7.5462    0.0000 </r>
       <r>    7.8266    0.0000 </r>
       <r>    7.9404    0.0000 </r>
       <r>    9.1186    0.0000 </r>
       <r>   11.3835    0.0000 </r>
       <r>   17.2271    0.0000 </r>
       <r>   17.4581    0.0000 </r>
       <r>   23.3856    0.0000 </r>
       <r>   23.6086    0.0000 </r>
      </set>
      <set comment="kpoint 16">
       <r>    0.0131    1.0000 </r>
       <r>    2.9359    1.0000 </r>
       <r>    3.9689    1.0000 </r>
       <r>    4.3292    1.0000 </r>
       <r>    5.1548    1.0000 </r>
       <r>    5.4883    1.0000 </r>
       <r>    5.6810    1.0000 </r>
       <r>    6.1753    1.0000 </r>
       <r>    6.5978    1.0000 </r>
       <r>    6.6860    0.9951 </r>
       <r>    7.7347    0.0000 </r>
       <r>   10.3633    0.0000 </r>
       <r>   18.4512    0.0000 </r>
       <r>   23.6962    0.0000 </r>
       <r>   24.6711    0.0000 </r>
       <r>   28.2977    0.0000 </r>
      </set>
      <set comment="kpoint 17">
       <r>    1.5585    1.0000 </r>
       <r>    3.2105    1.0000 </r>
       <r>    3.3104    1.0000 </r>
       <r>    4.0768    1.0000 </r>
       <r>    4.9861    1.0000 </r>
       <r>    5.5099    1.0000 </r>
       <r>    5.6007    1.0000 </r>
       <r>    6.6967    0.9887 </r>
       <r>    7.3450    0.0000 </r>
       <r>    7.3777    0.0000 </r>
       <r>    8.0392    0.0000 </r>
       <r>   12.1300    0.0000 </r>
       <r>   18.6732    0.0000 </r>
       <r>   19.9602    0.0000 </r>
       <r>   22.0948    0.0000 </r>
       <r>   24.3823    0.0000 </r>
      </set>
      <set comment="kpoint 18">
       <r>    2.2646    1.0000 </r>
       <r>    2.8286    1.0000 </r>
       <r>    3.4612    1.0000 </r>
       <r>    3.9411    1.0000 </r>
       <r>    4.9212    1.0000 </r>
       <r>    5.7929    1.0000 </r>
       <r>    5.9782    1.0000 </r>
       <r>    7.3615    0.0000 </r>
       <r>    7.5816    0.0000 </r>
       <r>    7.8927    0.0000 </r>
       <r>    9.4065    0.0000 </r>
       <r>   12.5753    0.0000 </r>
       <r>   16.5484    0.0000 </r>
       <r>   19.1297    0.0000 </r>
       <r>   20.7259    0.0000 </r>
       <r>   23.2148    0.0000 </r>
      </set>
      <set comment="kpoint 19">
       <r>    2.8116    1.0000 </r>
       <r>    2.9422    1.0000 </r>
       <r>    3.5375    1.0000 </r>
       <r>    3.7578    1.0000 </r>
       <r>    4.9639    1.0000 </r>
       <r>    5.1035    1.0000 </r>
       <r>    5.8001    1.0000 </r>
       <r>    7.0057    0.0000 </r>
       <r>    7.4021    0.0000 </r>
       <r>    7.9189    0.0000 </r>
       <r>    9.6616    0.0000 </r>
       <r>   13.9239    0.0000 </r>
       <r>   16.9436    0.0000 </r>
       <r>   17.9717    0.0000 </r>
       <r>   20.9665    0.0000 </r>
       <r>   23.5180    0.0000 </r>
      </set>
      <set comment="kpoint 20">
       <r>    2.8298    1.0000 </r>
       <r>    3.3882    1.0000 </r>
       <r>    3.5313    1.0000 </r>
       <r>    3.6853    1.0000 </r>
       <r>    4.7640    1.0000 </r>
       <r>    5.0803    1.0000 </r>
       <r>    6.0831    1.0000 </r>
       <r>    7.2986    0.0000 </r>
       <r>    7.4702    0.0000 </r>
       <r>    7.7628    0.0000 </r>
       <r>   11.9460    0.0000 </r>
       <r>   12.9429    0.0000 </r>
       <r>   15.9587    0.0000 </r>
       <r>   18.3846    0.0000 </r>
       <r>   19.1567    0.0000 </r>
       <r>   22.2310    0.0000 </r>
      </set>
      <set comment="kpoint 21">
       <r>   -0.3283    1.0000 </r>
       <r>    1.1679    1.0000 </r>
       <r>    4.9204    1.0000 </r>
       <r>    4.9844    1.0000 </r>
       <r>    5.0774    1.0000 </r>
       <r>    5.0774    1.0000 </r>
       <r>    5.2634    1.0000 </r>
       <r>    5.2634    1.0000 </r>
       <r>    6.9800    0.0000 </r>
       <r>    6.9800    0.0000 </r>
       <r>    7.4251    0.0000 </r>
       <r>    7.4251    0.0000 </r>
       <r>   21.8460    0.0000 </r>
       <r>   26.3624    0.0000 </r>
       <r>   29.5883    0.0000 </r>
       <r>   30.2209    0.0000 </r>
      </set>
      <set comment="kpoint 22">
       <r>    0.1700    1.0000 </r>
       <r>    1.6213    1.0000 </r>
       <r>    4.3481    1.0000 </r>
       <r>    4.6725    1.0000 </r>
       <r>    5.0133    1.0000 </r>
       <r>    5.3136    1.0000 </r>
       <r>    5.4125    1.0000 </r>
       <r>    5.5150    1.0000 </r>
       <r>    6.9342    0.0000 </r>
       <r>    7.1001    0.0000 </r>
       <r>    7.4254    0.0000 </r>
       <r>    7.8508    0.0000 </r>
       <r>   22.1657    0.0000 </r>
       <r>   26.5405    0.0000 </r>
       <r>   27.4491    0.0000 </r>
       <r>   28.5057    0.0000 </r>
      </set>
      <set comment="kpoint 23">
       <r>    1.3182    1.0000 </r>
       <r>    2.4258    1.0000 </r>
       <r>    3.8162    1.0000 </r>
       <r>    4.3487    1.0000 </r>
       <r>    4.9421    1.0000 </r>
       <r>    5.4185    1.0000 </r>
       <r>    5.7442    1.0000 </r>
       <r>    6.1264    1.0000 </r>
       <r>    7.0227    0.0000 </r>
       <r>    7.4454    0.0000 </r>
       <r>    7.4586    0.0000 </r>
       <r>    8.7358    0.0000 </r>
       <r>   22.0881    0.0000 </r>
       <r>   23.0869    0.0000 </r>
       <r>   24.1636    0.0000 </r>
       <r>   27.8488    0.0000 </r>
      </set>
      <set comment="kpoint 24">
       <r>    1.9652    1.0000 </r>
       <r>    2.4260    1.0000 </r>
       <r>    3.6555    1.0000 </r>
       <r>    4.0737    1.0000 </r>
       <r>    5.8055    1.0000 </r>
       <r>    5.8511    1.0000 </r>
       <r>    6.6113    1.0000 </r>
       <r>    6.6189    1.0000 </r>
       <r>    7.5222    0.0000 </r>
       <r>    7.6908    0.0000 </r>
       <r>    7.9159    0.0000 </r>
       <r>    9.7197    0.0000 </r>
       <r>   17.7859    0.0000 </r>
       <r>   19.1761    0.0000 </r>
       <r>   25.1585    0.0000 </r>
       <r>   26.1686    0.0000 </r>
      </set>
      <set comment="kpoint 25">
       <r>    1.9834    1.0000 </r>
       <r>    2.3319    1.0000 </r>
       <r>    3.5944    1.0000 </r>
       <r>    3.9173    1.0000 </r>
       <r>    5.8286    1.0000 </r>
       <r>    6.3510    1.0000 </r>
       <r>    6.7271    0.9221 </r>
       <r>    7.7670    0.0000 </r>
       <r>    7.8439    0.0000 </r>
       <r>    7.8966    0.0000 </r>
       <r>    8.5603    0.0000 </r>
       <r>   10.2203    0.0000 </r>
       <r>   16.2757    0.0000 </r>
       <r>   16.3103    0.0000 </r>
       <r>   25.3609    0.0000 </r>
       <r>   26.9706    0.0000 </r>
      </set>
      <set comment="kpoint 26">
       <r>    1.0268    1.0000 </r>
       <r>    2.3214    1.0000 </r>
       <r>    3.8982    1.0000 </r>
       <r>    4.4154    1.0000 </r>
       <r>    4.8132    1.0000 </r>
       <r>    5.2151    1.0000 </r>
       <r>    5.6875    1.0000 </r>
       <r>    5.9597    1.0000 </r>
       <r>    7.0516    0.0000 </r>
       <r>    7.2701    0.0000 </r>
       <r>    7.5210    0.0000 </r>
       <r>    8.4995    0.0000 </r>
       <r>   22.7688    0.0000 </r>
       <r>   24.5908    0.0000 </r>
       <r>   25.5417    0.0000 </r>
       <r>   26.7852    0.0000 </r>
      </set>
      <set comment="kpoint 27">
       <r>    2.0503    1.0000 </r>
       <r>    2.6898    1.0000 </r>
       <r>    3.8152    1.0000 </r>
       <r>    4.2960    1.0000 </r>
       <r>    4.8639    1.0000 </r>
       <r>    5.2372    1.0000 </r>
       <r>    5.8539    1.0000 </r>
       <r>    6.4067    1.0000 </r>
       <r>    7.4846    0.0000 </r>
       <r>    7.7008    0.0000 </r>
       <r>    8.1390    0.0000 </r>
       <r>    9.5700    0.0000 </r>
       <r>   20.0500    0.0000 </r>
       <r>   21.5533    0.0000 </r>
       <r>   23.2802    0.0000 </r>
       <r>   24.8870    0.0000 </r>
      </set>
      <set comment="kpoint 28">
       <r>    2.2684    1.0000 </r>
       <r>    2.6335    1.0000 </r>
       <r>    3.6933    1.0000 </r>
       <r>    4.1632    1.0000 </r>
       <r>    5.1089    1.0000 </r>
       <r>    5.9370    1.0000 </r>
       <r>    6.3528    1.0000 </r>
       <r>    6.7298    0.9105 </r>
       <r>    7.6221    0.0000 </r>
       <r>    7.9520    0.0000 </r>
       <r>    9.7013    0.0000 </r>
       <r>   10.9636    0.0000 </r>
       <r>   16.5249    0.0000 </r>
       <r>   17.5715    0.0000 </r>
       <r>   22.2975    0.0000 </r>
       <r>   24.2678    0.0000 </r>
      </set>
      <set comment="kpoint 29">
       <r>    2.8227    1.0000 </r>
       <r>    2.8796    1.0000 </r>
       <r>    3.9318    1.0000 </r>
       <r>    4.3865    1.0000 </r>
       <r>    4.5538    1.0000 </r>
       <r>    4.9557    1.0000 </r>
       <r>    5.8888    1.0000 </r>
       <r>    6.4235    1.0000 </r>
       <r>    7.5991    0.0000 </r>
       <r>    7.9837    0.0000 </r>
       <r>   10.1967    0.0000 </r>
       <r>   11.5797    0.0000 </r>
       <r>   18.0906    0.0000 </r>
       <r>   18.8768    0.0000 </r>
       <r>   20.1458    0.0000 </r>
       <r>   21.0566    0.0000 </r>
      </set>
      <set comment="kpoint 30">
       <r>    2.9512    1.0000 </r>
       <r>    3.2769    1.0000 </r>
       <r>    3.8215    1.0000 </r>
       <r>    4.0585    1.0000 </r>
       <r>    4.6133    1.0000 </r>
       <r>    4.9445    1.0000 </r>
       <r>    6.1653    1.0000 </r>
       <r>    6.5253    1.0000 </r>
       <r>    7.5995    0.0000 </r>
       <r>    7.7639    0.0000 </r>
       <r>   12.5940    0.0000 </r>
       <r>   12.9301    0.0000 </r>
       <r>   16.0765    0.0000 </r>
       <r>   16.6388    0.0000 </r>
       <r>   18.8226    0.0000 </r>
       <r>   20.1742    0.0000 </r>
      </set>
     </set>
     <set comment="spin 2">
      <set comment="kpoint 1">
       <r>   -1.9964    1.0000 </r>
       <r>    1.9819    1.0000 </r>
       <r>    5.2652    1.0000 </r>
       <r>    5.2652    1.0000 </r>
       <r>    5.3935    1.0000 </r>
       <r>    5.7325    1.0000 </r>
       <r>    5.7325    1.0000 </r>
       <r>    6.0612    1.0000 </r>
       <r>    6.0612    1.0000 </r>
       <r>    7.4815    0.0000 </r>
       <r>    7.6222    0.0000 </r>
       <r>    7.6222    0.0000 </r>
       <r>   15.7300    0.0000 </r>
       <r>   28.8441    0.0000 </r>
       <r>   32.5161    0.0000 </r>
       <r>   33.4487    0.0000 </r>
      </set>
      <set comment="kpoint 2">
       <r>   -1.4241    1.0000 </r>
       <r>    2.3350    1.0000 </r>
       <r>    4.7690    1.0000 </r>
       <r>    5.3834    1.0000 </r>
       <r>    5.5556    1.0000 </r>
       <r>    5.5847    1.0000 </r>
       <r>    5.8204    1.0000 </r>
       <r>    5.8548    1.0000 </r>
       <r>    6.0106    1.0000 </r>
       <r>    6.1243    1.0000 </r>
       <r>    7.7171    0.0000 </r>
       <r>    9.9966    0.0000 </r>
       <r>   15.7672    0.0000 </r>
       <r>   26.1977    0.0000 </r>
       <r>   29.5100    0.0000 </r>
       <r>   29.6672    0.0000 </r>
      </set>
      <set comment="kpoint 3">
       <r>    0.1094    1.0000 </r>
       <r>    2.8958    1.0000 </r>
       <r>    3.9657    1.0000 </r>
       <r>    4.2689    1.0000 </r>
       <r>    5.3492    1.0000 </r>
       <r>    5.4383    1.0000 </r>
       <r>    5.7810    1.0000 </r>
       <r>    6.4183    1.0000 </r>
       <r>    6.5383    1.0000 </r>
       <r>    6.7259    0.9271 </r>
       <r>    7.8683    0.0000 </r>
       <r>   12.8360    0.0000 </r>
       <r>   15.9065    0.0000 </r>
       <r>   20.9570    0.0000 </r>
       <r>   26.0806    0.0000 </r>
       <r>   28.1001    0.0000 </r>
      </set>
      <set comment="kpoint 4">
       <r>    1.7940    1.0000 </r>
       <r>    2.7090    1.0000 </r>
       <r>    3.0645    1.0000 </r>
       <r>    4.4405    1.0000 </r>
       <r>    5.0855    1.0000 </r>
       <r>    5.5037    1.0000 </r>
       <r>    5.6312    1.0000 </r>
       <r>    7.3413    0.0000 </r>
       <r>    7.5460    0.0000 </r>
       <r>    7.8606    0.0000 </r>
       <r>    7.9610    0.0000 </r>
       <r>   14.6136    0.0000 </r>
       <r>   15.9168    0.0000 </r>
       <r>   18.1874    0.0000 </r>
       <r>   23.5966    0.0000 </r>
       <r>   23.9250    0.0000 </r>
      </set>
      <set comment="kpoint 5">
       <r>    2.3848    1.0000 </r>
       <r>    2.4735    1.0000 </r>
       <r>    2.7596    1.0000 </r>
       <r>    4.8683    1.0000 </r>
       <r>    4.9513    1.0000 </r>
       <r>    5.3937    1.0000 </r>
       <r>    5.8523    1.0000 </r>
       <r>    7.7292    0.0000 </r>
       <r>    7.9570    0.0000 </r>
       <r>    7.9890    0.0000 </r>
       <r>    9.6028    0.0000 </r>
       <r>   11.7574    0.0000 </r>
       <r>   18.2213    0.0000 </r>
       <r>   18.9584    0.0000 </r>
       <r>   21.2848    0.0000 </r>
       <r>   22.6443    0.0000 </r>
      </set>
      <set comment="kpoint 6">
       <r>   -0.3579    1.0000 </r>
       <r>    2.8633    1.0000 </r>
       <r>    4.2442    1.0000 </r>
       <r>    4.3515    1.0000 </r>
       <r>    5.3810    1.0000 </r>
       <r>    5.4015    1.0000 </r>
       <r>    6.0077    1.0000 </r>
       <r>    6.0908    1.0000 </r>
       <r>    6.2296    1.0000 </r>
       <r>    6.6586    0.9996 </r>
       <r>    7.7966    0.0000 </r>
       <r>   12.0601    0.0000 </r>
       <r>   15.8961    0.0000 </r>
       <r>   23.3750    0.0000 </r>
       <r>   24.2494    0.0000 </r>
       <r>   29.9786    0.0000 </r>
      </set>
      <set comment="kpoint 7">
       <r>    1.3741    1.0000 </r>
       <r>    3.1090    1.0000 </r>
       <r>    3.3923    1.0000 </r>
       <r>    3.9274    1.0000 </r>
       <r>    5.0081    1.0000 </r>
       <r>    5.4765    1.0000 </r>
       <r>    5.6927    1.0000 </r>
       <r>    6.6870    0.9947 </r>
       <r>    7.1919    0.0000 </r>
       <r>    7.7710    0.0000 </r>
       <r>    7.8641    0.0000 </r>
       <r>   14.8829    0.0000 </r>
       <r>   16.0538    0.0000 </r>
       <r>   18.9137    0.0000 </r>
       <r>   21.6488    0.0000 </r>
       <r>   26.1047    0.0000 </r>
      </set>
      <set comment="kpoint 8">
       <r>    2.5416    1.0000 </r>
       <r>    2.7801    1.0000 </r>
       <r>    2.8746    1.0000 </r>
       <r>    4.3599    1.0000 </r>
       <r>    4.8791    1.0000 </r>
       <r>    5.3643    1.0000 </r>
       <r>    5.8399    1.0000 </r>
       <r>    7.5052    0.0000 </r>
       <r>    7.7733    0.0000 </r>
       <r>    7.8973    0.0000 </r>
       <r>    9.4164    0.0000 </r>
       <r>   13.2146    0.0000 </r>
       <r>   17.9182    0.0000 </r>
       <r>   18.7980    0.0000 </r>
       <r>   20.1465    0.0000 </r>
       <r>   22.4412    0.0000 </r>
      </set>
      <set comment="kpoint 9">
       <r>    2.8056    1.0000 </r>
       <r>    3.0081    1.0000 </r>
       <r>    3.4374    1.0000 </r>
       <r>    3.4596    1.0000 </r>
       <r>    4.7578    1.0000 </r>
       <r>    5.3683    1.0000 </r>
       <r>    5.8392    1.0000 </r>
       <r>    6.9924    0.0000 </r>
       <r>    7.7978    0.0000 </r>
       <r>    7.8039    0.0000 </r>
       <r>    9.4562    0.0000 </r>
       <r>   15.8099    0.0000 </r>
       <r>   16.4942    0.0000 </r>
       <r>   17.7061    0.0000 </r>
       <r>   19.1974    0.0000 </r>
       <r>   24.6911    0.0000 </r>
      </set>
      <set comment="kpoint 10">
       <r>    2.8787    1.0000 </r>
       <r>    3.2034    1.0000 </r>
       <r>    3.2264    1.0000 </r>
       <r>    3.8696    1.0000 </r>
       <r>    4.8049    1.0000 </r>
       <r>    5.0719    1.0000 </r>
       <r>    6.0935    1.0000 </r>
       <r>    7.4385    0.0000 </r>
       <r>    7.6929    0.0000 </r>
       <r>    7.7765    0.0000 </r>
       <r>   11.5767    0.0000 </r>
       <r>   12.9252    0.0000 </r>
       <r>   15.7694    0.0000 </r>
       <r>   20.3433    0.0000 </r>
       <r>   20.3625    0.0000 </r>
       <r>   22.0054    0.0000 </r>
      </set>
      <set comment="kpoint 11">
       <r>   -1.5516    1.0000 </r>
       <r>    1.8969    1.0000 </r>
       <r>    5.1279    1.0000 </r>
       <r>    5.1279    1.0000 </r>
       <r>    5.2396    1.0000 </r>
       <r>    5.5697    1.0000 </r>
       <r>    5.5697    1.0000 </r>
       <r>    6.2933    1.0000 </r>
       <r>    6.4026    1.0000 </r>
       <r>    6.4026    1.0000 </r>
       <r>    7.6059    0.0000 </r>
       <r>    7.6059    0.0000 </r>
       <r>   17.7305    0.0000 </r>
       <r>   28.5964    0.0000 </r>
       <r>   31.5690    0.0000 </r>
       <r>   31.6107    0.0000 </r>
      </set>
      <set comment="kpoint 12">
       <r>   -0.9994    1.0000 </r>
       <r>    2.2987    1.0000 </r>
       <r>    4.7903    1.0000 </r>
       <r>    4.8287    1.0000 </r>
       <r>    5.2732    1.0000 </r>
       <r>    5.3620    1.0000 </r>
       <r>    5.8141    1.0000 </r>
       <r>    5.8210    1.0000 </r>
       <r>    6.3242    1.0000 </r>
       <r>    6.4527    1.0000 </r>
       <r>    7.6682    0.0000 </r>
       <r>    8.9454    0.0000 </r>
       <r>   17.9484    0.0000 </r>
       <r>   26.4232    0.0000 </r>
       <r>   29.2841    0.0000 </r>
       <r>   29.9512    0.0000 </r>
      </set>
      <set comment="kpoint 13">
       <r>    0.4372    1.0000 </r>
       <r>    2.9858    1.0000 </r>
       <r>    3.7097    1.0000 </r>
       <r>    4.3667    1.0000 </r>
       <r>    5.0684    1.0000 </r>
       <r>    5.5080    1.0000 </r>
       <r>    5.7730    1.0000 </r>
       <r>    6.4754    1.0000 </r>
       <r>    6.6635    0.9994 </r>
       <r>    6.7571    0.7161 </r>
       <r>    7.7659    0.0000 </r>
       <r>   10.8409    0.0000 </r>
       <r>   18.6407    0.0000 </r>
       <r>   21.3435    0.0000 </r>
       <r>   26.0277    0.0000 </r>
       <r>   26.6621    0.0000 </r>
      </set>
      <set comment="kpoint 14">
       <r>    1.7801    1.0000 </r>
       <r>    2.7309    1.0000 </r>
       <r>    3.3384    1.0000 </r>
       <r>    4.1111    1.0000 </r>
       <r>    5.2886    1.0000 </r>
       <r>    5.5015    1.0000 </r>
       <r>    6.2293    1.0000 </r>
       <r>    7.2965    0.0000 </r>
       <r>    7.3926    0.0000 </r>
       <r>    7.6687    0.0000 </r>
       <r>    7.8578    0.0000 </r>
       <r>   12.3049    0.0000 </r>
       <r>   16.8057    0.0000 </r>
       <r>   19.8174    0.0000 </r>
       <r>   22.5736    0.0000 </r>
       <r>   24.2893    0.0000 </r>
      </set>
      <set comment="kpoint 15">
       <r>    2.0384    1.0000 </r>
       <r>    2.4798    1.0000 </r>
       <r>    3.5246    1.0000 </r>
       <r>    3.8915    1.0000 </r>
       <r>    5.1828    1.0000 </r>
       <r>    5.8039    1.0000 </r>
       <r>    6.7461    0.8110 </r>
       <r>    7.5462    0.0000 </r>
       <r>    7.8266    0.0000 </r>
       <r>    7.9404    0.0000 </r>
       <r>    9.1186    0.0000 </r>
       <r>   11.3835    0.0000 </r>
       <r>   17.2271    0.0000 </r>
       <r>   17.4581    0.0000 </r>
       <r>   23.3856    0.0000 </r>
       <r>   23.6086    0.0000 </r>
      </set>
      <set comment="kpoint 16">
       <r>    0.0131    1.0000 </r>
       <r>    2.9359    1.0000 </r>
       <r>    3.9689    1.0000 </r>
       <r>    4.3292    1.0000 </r>
       <r>    5.1548    1.0000 </r>
       <r>    5.4883    1.0000 </r>
       <r>    5.6810    1.0000 </r>
       <r>    6.1753    1.0000 </r>
       <r>    6.5978    1.0000 </r>
       <r>    6.6860    0.9951 </r>
       <r>    7.7347    0.0000 </r>
       <r>   10.3633    0.0000 </r>
       <r>   18.4512    0.0000 </r>
       <r>   23.6962    0.0000 </r>
       <r>   24.6711    0.0000 </r>
       <r>   28.2977    0.0000 </r>
      </set>
      <set comment="kpoint 17">
       <r>    1.5585    1.0000 </r>
       <r>    3.2105    1.0000 </r>
       <r>    3.3104    1.0000 </r>
       <r>    4.0768    1.0000 </r>
       <r>    4.9861    1.0000 </r>
       <r>    5.5099    1.0000 </r>
       <r>    5.6007    1.0000 </r>
       <r>    6.6967    0.9887 </r>
       <r>    7.3450    0.0000 </r>
       <r>    7.3777    0.0000 </r>
       <r>    8.0392    0.0000 </r>
       <r>   12.1300    0.0000 </r>
       <r>   18.6732    0.0000 </r>
       <r>   19.9602    0.0000 </r>
       <r>   22.0948    0.0000 </r>
       <r>   24.3822    0.0000 </r>
      </set>
      <set comment="kpoint 18">
       <r>    2.2646    1.0000 </r>
       <r>    2.8286    1.0000 </r>
       <r>    3.4612    1.0000 </r>
       <r>    3.9411    1.0000 </r>
       <r>    4.9212    1.0000 </r>
       <r>    5.7929    1.0000 </r>
       <r>    5.9782    1.0000 </r>
       <r>    7.3615    0.0000 </r>
       <r>    7.5816    0.0000 </r>
       <r>    7.8927    0.0000 </r>
       <r>    9.4065    0.0000 </r>
       <r>   12.5753    0.0000 </r>
       <r>   16.5484    0.0000 </r>
       <r>   19.1297    0.0000 </r>
       <r>   20.7259    0.0000 </r>
       <r>   23.2148    0.0000 </r>
      </set>
      <set comment="kpoint 19">
       <r>    2.8116    1.0000 </r>
       <r>    2.9422    1.0000 </r>
       <r>    3.5375    1.0000 </r>
       <r>    3.7578    1.0000 </r>
       <r>    4.9639    1.0000 </r>
       <r>    5.1035    1.0000 </r>
       <r>    5.8001    1.0000 </r>
       <r>    7.0057    0.0000 </r>
       <r>    7.4021    0.0000 </r>
       <r>    7.9189    0.0000 </r>
       <r>    9.6616    0.0000 </r>
       <r>   13.9239    0.0000 </r>
       <r>   16.9436    0.0000 </r>
       <r>   17.9717    0.0000 </r>
       <r>   20.9666    0.0000 </r>
       <r>   23.2904    0.0000 </r>
      </set>
      <set comment="kpoint 20">
       <r>    2.8298    1.0000 </r>
       <r>    3.3882    1.0000 </r>
       <r>    3.5313    1.0000 </r>
       <r>    3.6853    1.0000 </r>
       <r>    4.7640    1.0000 </r>
       <r>    5.0803    1.0000 </r>
       <r>    6.0831    1.0000 </r>
       <r>    7.2986    0.0000 </r>
       <r>    7.4702    0.0000 </r>
       <r>    7.7628    0.0000 </r>
       <r>   11.9460    0.0000 </r>
       <r>   12.9429    0.0000 </r>
       <r>   15.9587    0.0000 </r>
       <r>   18.3846    0.0000 </r>
       <r>   19.1567    0.0000 </r>
       <r>   22.2310    0.0000 </r>
      </set>
      <set comment="kpoint 21">
       <r>   -0.3283    1.0000 </r>
       <r>    1.1679    1.0000 </r>
       <r>    4.9204    1.0000 </r>
       <r>    4.9844    1.0000 </r>
       <r>    5.0774    1.0000 </r>
       <r>    5.0774    1.0000 </r>
       <r>    5.2634    1.0000 </r>
       <r>    5.2634    1.0000 </r>
       <r>    6.9800    0.0000 </r>
       <r>    6.9800    0.0000 </r>
       <r>    7.4251    0.0000 </r>
       <r>    7.4251    0.0000 </r>
       <r>   21.8460    0.0000 </r>
       <r>   26.3624    0.0000 </r>
       <r>   29.5883    0.0000 </r>
       <r>   30.2209    0.0000 </r>
      </set>
      <set comment="kpoint 22">
       <r>    0.1700    1.0000 </r>
       <r>    1.6213    1.0000 </r>
       <r>    4.3481    1.0000 </r>
       <r>    4.6725    1.0000 </r>
       <r>    5.0133    1.0000 </r>
       <r>    5.3136    1.0000 </r>
       <r>    5.4125    1.0000 </r>
       <r>    5.5150    1.0000 </r>
       <r>    6.9342    0.0000 </r>
       <r>    7.1001    0.0000 </r>
       <r>    7.4254    0.0000 </r>
       <r>    7.8508    0.0000 </r>
       <r>   22.1657    0.0000 </r>
       <r>   26.5405    0.0000 </r>
       <r>   27.4491    0.0000 </r>
       <r>   28.5058    0.0000 </r>
      </set>
      <set comment="kpoint 23">
       <r>    1.3182    1.0000 </r>
       <r>    2.4258    1.0000 </r>
       <r>    3.8162    1.0000 </r>
       <r>    4.3487    1.0000 </r>
       <r>    4.9421    1.0000 </r>
       <r>    5.4185    1.0000 </r>
       <r>    5.7442    1.0000 </r>
       <r>    6.1264    1.0000 </r>
       <r>    7.0227    0.0000 </r>
       <r>    7.4454    0.0000 </r>
       <r>    7.4586    0.0000 </r>
       <r>    8.7358    0.0000 </r>
       <r>   22.0881    0.0000 </r>
       <r>   23.0869    0.0000 </r>
       <r>   24.1636    0.0000 </r>
       <r>   27.8438    0.0000 </r>
      </set>
      <set comment="kpoint 24">
       <r>    1.9652    1.0000 </r>
       <r>    2.4260    1.0000 </r>
       <r>    3.6555    1.0000 </r>
       <r>    4.0737    1.0000 </r>
       <r>    5.8055    1.0000 </r>
       <r>    5.8511    1.0000 </r>
       <r>    6.6113    1.0000 </r>
       <r>    6.6189    1.0000 </r>
       <r>    7.5222    0.0000 </r>
       <r>    7.6908    0.0000 </r>
       <r>    7.9159    0.0000 </r>
       <r>    9.7197    0.0000 </r>
       <r>   17.7859    0.0000 </r>
       <r>   19.1761    0.0000 </r>
       <r>   25.1586    0.0000 </r>
       <r>   26.1686    0.0000 </r>
      </set>
      <set comment="kpoint 25">
       <r>    1.9834    1.0000 </r>
       <r>    2.3319    1.0000 </r>
       <r>    3.5943    1.0000 </r>
       <r>    3.9173    1.0000 </r>
       <r>    5.8286    1.0000 </r>
       <r>    6.3510    1.0000 </r>
       <r>    6.7271    0.9221 </r>
       <r>    7.7670    0.0000 </r>
       <r>    7.8439    0.0000 </r>
       <r>    7.8966    0.0000 </r>
       <r>    8.5603    0.0000 </r>
       <r>   10.2203    0.0000 </r>
       <r>   16.2757    0.0000 </r>
       <r>   16.3103    0.0000 </r>
       <r>   25.3608    0.0000 </r>
       <r>   26.9708    0.0000 </r>
      </set>
      <set comment="kpoint 26">
       <r>    1.0268    1.0000 </r>
       <r>    2.3214    1.0000 </r>
       <r>    3.8982    1.0000 </r>
       <r>    4.4154    1.0000 </r>
       <r>    4.8132    1.0000 </r>
       <r>    5.2151    1.0000 </r>
       <r>    5.6875    1.0000 </r>
       <r>    5.9597    1.0000 </r>
       <r>    7.0516    0.0000 </r>
       <r>    7.2701    0.0000 </r>
       <r>    7.5210    0.0000 </r>
       <r>    8.4995    0.0000 </r>
       <r>   22.7688    0.0000 </r>
       <r>   24.5908    0.0000 </r>
       <r>   25.5417    0.0000 </r>
       <r>   26.7852    0.0000 </r>
      </set>
      <set comment="kpoint 27">
       <r>    2.0503    1.0000 </r>
       <r>    2.6898    1.0000 </r>
       <r>    3.8152    1.0000 </r>
       <r>    4.2960    1.0000 </r>
       <r>    4.8639    1.0000 </r>
       <r>    5.2372    1.0000 </r>
       <r>    5.8539    1.0000 </r>
       <r>    6.4067    1.0000 </r>
       <r>    7.4846    0.0000 </r>
       <r>    7.7008    0.0000 </r>
       <r>    8.1390    0.0000 </r>
       <r>    9.5700    0.0000 </r>
       <r>   20.0500    0.0000 </r>
       <r>   21.5533    0.0000 </r>
       <r>   23.2802    0.0000 </r>
       <r>   24.8868    0.0000 </r>
      </set>
      <set comment="kpoint 28">
       <r>    2.2684    1.0000 </r>
       <r>    2.6335    1.0000 </r>
       <r>    3.6933    1.0000 </r>
       <r>    4.1632    1.0000 </r>
       <r>    5.1089    1.0000 </r>
       <r>    5.9370    1.0000 </r>
       <r>    6.3528    1.0000 </r>
       <r>    6.7298    0.9105 </r>
       <r>    7.6221    0.0000 </r>
       <r>    7.9520    0.0000 </r>
       <r>    9.7013    0.0000 </r>
       <r>   10.9636    0.0000 </r>
       <r>   16.5249    0.0000 </r>
       <r>   17.5715    0.0000 </r>
       <r>   22.2975    0.0000 </r>
       <r>   24.2678    0.0000 </r>
      </set>
      <set comment="kpoint 29">
       <r>    2.8227    1.0000 </r>
       <r>    2.8796    1.0000 </r>
       <r>    3.9318    1.0000 </r>
       <r>    4.3865    1.0000 </r>
       <r>    4.5538    1.0000 </r>
       <r>    4.9556    1.0000 </r>
       <r>    5.8888    1.0000 </r>
       <r>    6.4235    1.0000 </r>
       <r>    7.5991    0.0000 </r>
       <r>    7.9837    0.0000 </r>
       <r>   10.1967    0.0000 </r>
       <r>   11.5797    0.0000 </r>
       <r>   18.0906    0.0000 </r>
       <r>   18.8768    0.0000 </r>
       <r>   20.1458    0.0000 </r>
       <r>   21.0566    0.0000 </r>
      </set>
      <set comment="kpoint 30">
       <r>    2.9512    1.0000 </r>
       <r>    3.2769    1.0000 </r>
       <r>    3.8215    1.0000 </r>
       <r>    4.0585    1.0000 </r>
       <r>    4.6133    1.0000 </r>
       <r>    4.9445    1.0000 </r>
       <r>    6.1653    1.0000 </r>
       <r>    6.5253    1.0000 </r>
       <r>    7.5995    0.0000 </r>
       <r>    7.7639    0.0000 </r>
       <r>   12.5940    0.0000 </r>
       <r>   12.9301    0.0000 </r>
       <r>   16.0765    0.0000 </r>
       <r>   16.6388    0.0000 </r>
       <r>   18.8226    0.0000 </r>
       <r>   20.1742    0.0000 </r>
      </set>
     </set>
    </set>
   </array>
  </eigenvalues>
  <separator name="orbital magnetization" >
   <v name="MAGDIPOLOUT">      0.00000000      0.00000000      0.00000000</v>
  </separator>
  <dos>
   <i name="efermi">      6.77727288 </i>
   <total>
    <array>
     <dimension dim="1">gridpoints</dimension>
     <dimension dim="2">spin</dimension>
     <field>energy</field>
     <field>total</field>
     <field>integrated</field>
     <set>
      <set comment="spin 1">
       <r>    -3.7686     0.0000     0.0000 </r>
       <r>    -3.6387     0.0000     0.0000 </r>
       <r>    -3.5087     0.0000     0.0000 </r>
       <r>    -3.3787     0.0000     0.0000 </r>
       <r>    -3.2488     0.0000     0.0000 </r>
       <r>    -3.1188     0.0000     0.0000 </r>
       <r>    -2.9888     0.0000     0.0000 </r>
       <r>    -2.8589     0.0000     0.0000 </r>
       <r>    -2.7289     0.0000     0.0000 </r>
       <r>    -2.5989     0.0000     0.0000 </r>
       <r>    -2.4690     0.0000     0.0000 </r>
       <r>    -2.3390     0.0000     0.0000 </r>
       <r>    -2.2090     0.0000     0.0000 </r>
       <r>    -2.0791     0.0002     0.0000 </r>
       <r>    -1.9491     0.0216     0.0028 </r>
       <r>    -1.8191     0.0022     0.0031 </r>
       <r>    -1.6892     0.0000     0.0031 </r>
       <r>    -1.5592     0.0200     0.0057 </r>
       <r>    -1.4292     0.0919     0.0177 </r>
       <r>    -1.2993     0.0804     0.0281 </r>
       <r>    -1.1693     0.0000     0.0281 </r>
       <r>    -1.0393     0.0373     0.0330 </r>
       <r>    -0.9094     0.2497     0.0654 </r>
       <r>    -0.7794     0.0016     0.0656 </r>
       <r>    -0.6494     0.0000     0.0656 </r>
       <r>    -0.5195     0.0000     0.0656 </r>
       <r>    -0.3895     0.0288     0.0694 </r>
       <r>    -0.2596     0.1620     0.0904 </r>
       <r>    -0.1296     0.0016     0.0906 </r>
       <r>     0.0004     0.1037     0.1041 </r>
       <r>     0.1303     0.3267     0.1466 </r>
       <r>     0.2603     0.2894     0.1842 </r>
       <r>     0.3903     0.0282     0.1878 </r>
       <r>     0.5202     0.2592     0.2215 </r>
       <r>     0.6502     0.0027     0.2219 </r>
       <r>     0.7802     0.0000     0.2219 </r>
       <r>     0.9101     0.0001     0.2219 </r>
       <r>     1.0401     0.1864     0.2461 </r>
       <r>     1.1701     0.1272     0.2627 </r>
       <r>     1.3000     0.1158     0.2777 </r>
       <r>     1.4300     0.4676     0.3385 </r>
       <r>     1.5600     0.3266     0.3809 </r>
       <r>     1.6899     0.5498     0.4524 </r>
       <r>     1.8199     0.3682     0.5002 </r>
       <r>     1.9499     0.2424     0.5317 </r>
       <r>     2.0798     0.9198     0.6513 </r>
       <r>     2.2098     0.1994     0.6772 </r>
       <r>     2.3398     1.6978     0.8978 </r>
       <r>     2.4697     0.9384     1.0198 </r>
       <r>     2.5997     0.5591     1.0925 </r>
       <r>     2.7297     1.2798     1.2588 </r>
       <r>     2.8596     2.2391     1.5498 </r>
       <r>     2.9896     1.9216     1.7996 </r>
       <r>     3.1195     0.6339     1.8819 </r>
       <r>     3.2495     0.9410     2.0043 </r>
       <r>     3.3795     1.3773     2.1833 </r>
       <r>     3.5094     1.3829     2.3630 </r>
       <r>     3.6394     0.8914     2.4788 </r>
       <r>     3.7694     1.5532     2.6807 </r>
       <r>     3.8993     1.7566     2.9090 </r>
       <r>     4.0293     1.8551     3.1501 </r>
       <r>     4.1593     1.5526     3.3519 </r>
       <r>     4.2892     0.9054     3.4695 </r>
       <r>     4.4192     2.2746     3.7652 </r>
       <r>     4.5492     0.4793     3.8275 </r>
       <r>     4.6791     0.5998     3.9054 </r>
       <r>     4.8091     1.1873     4.0597 </r>
       <r>     4.9391     2.3925     4.3707 </r>
       <r>     5.0690     2.6265     4.7120 </r>
       <r>     5.1990     1.9637     4.9672 </r>
       <r>     5.3290     1.8439     5.2069 </r>
       <r>     5.4589     2.2446     5.4986 </r>
       <r>     5.5889     2.4854     5.8216 </r>
       <r>     5.7189     1.4581     6.0111 </r>
       <r>     5.8488     3.4646     6.4614 </r>
       <r>     5.9788     2.3671     6.7690 </r>
       <r>     6.1087     1.2927     6.9370 </r>
[...]
       </set>
       <set comment="band 12">
        <r>  0.0193  0.0508  0.0415  0.1525  0.0390  0.0132  0.0850  0.0396  0.0130 </r>
        <r>  0.0193  0.0508  0.0415  0.1525  0.0390  0.0132  0.0850  0.0396  0.0130 </r>
       </set>
       <set comment="band 13">
        <r>  0.1830  0.0005  0.0536  0.0016  0.0880  0.0315  0.0077  0.0945  0.0293 </r>
        <r>  0.1830  0.0005  0.0536  0.0016  0.0880  0.0315  0.0077  0.0945  0.0293 </r>
       </set>
       <set comment="band 14">
        <r>  0.1926  0.0065  0.0032  0.0196  0.0941  0.0320  0.0074  0.0960  0.0314 </r>
        <r>  0.1926  0.0065  0.0032  0.0196  0.0941  0.0320  0.0074  0.0960  0.0314 </r>
       </set>
       <set comment="band 15">
        <r>  0.0000  0.2264  0.0000  0.0755  0.0000  0.0714  0.0000  0.0238  0.0000 </r>
        <r>  0.0000  0.2265  0.0000  0.0755  0.0000  0.0713  0.0000  0.0238  0.0000 </r>
       </set>
       <set comment="band 16">
        <r>  0.0090  0.0152  0.0622  0.0449  0.0037  0.0291  0.0018  0.0877  0.0012 </r>
        <r>  0.0091  0.0144  0.0651  0.0437  0.0028  0.0292  0.0013  0.0872  0.0009 </r>
       </set>
      </set>
      <set comment="kpoint 26">
       <set comment="band 1">
        <r>  0.2706  0.0366  0.0519  0.0122  0.0074  0.0307  0.0014  0.0103  0.0029 </r>
        <r>  0.2706  0.0366  0.0519  0.0122  0.0074  0.0307  0.0014  0.0103  0.0029 </r>
       </set>
       <set comment="band 2">
        <r>  0.1789  0.0292  0.0794  0.0099  0.0106  0.0562  0.0443  0.0188  0.0044 </r>
        <r>  0.1789  0.0292  0.0794  0.0099  0.0106  0.0562  0.0443  0.0188  0.0044 </r>
       </set>
       <set comment="band 3">
        <r>  0.0003  0.0062  0.0049  0.0042  0.0310  0.0891  0.2259  0.0299  0.0834 </r>
        <r>  0.0003  0.0062  0.0049  0.0042  0.0310  0.0891  0.2259  0.0299  0.0834 </r>
       </set>
       <set comment="band 4">
        <r>  0.0057  0.0047  0.0020  0.0055  0.0712  0.0827  0.0707  0.0277  0.2068 </r>
        <r>  0.0057  0.0047  0.0020  0.0055  0.0712  0.0827  0.0707  0.0277  0.2068 </r>
       </set>
       <set comment="band 5">
        <r>  0.0001  0.0038  0.0051  0.0026  0.0375  0.0250  0.2832  0.0154  0.1085 </r>
        <r>  0.0001  0.0038  0.0051  0.0026  0.0375  0.0250  0.2832  0.0154  0.1085 </r>
       </set>
       <set comment="band 6">
        <r>  0.0023  0.0013  0.0210  0.0031  0.0807  0.0127  0.1049  0.0217  0.2350 </r>
        <r>  0.0023  0.0013  0.0210  0.0031  0.0807  0.0127  0.1049  0.0217  0.2350 </r>
       </set>
       <set comment="band 7">
        <r>  0.0000  0.0042  0.0015  0.0014  0.1688  0.0609  0.0001  0.1729  0.0765 </r>
        <r>  0.0000  0.0042  0.0015  0.0014  0.1688  0.0609  0.0001  0.1729  0.0765 </r>
       </set>
       <set comment="band 8">
        <r>  0.0020  0.0063  0.0020  0.0026  0.2200  0.0446  0.0008  0.1329  0.0741 </r>
        <r>  0.0020  0.0063  0.0020  0.0026  0.2200  0.0446  0.0008  0.1329  0.0741 </r>
       </set>
       <set comment="band 9">
        <r>  0.0046  0.0018  0.0020  0.0012  0.1874  0.0564  0.0039  0.1670  0.0650 </r>
        <r>  0.0046  0.0018  0.0020  0.0012  0.1874  0.0564  0.0039  0.1670  0.0650 </r>
       </set>
       <set comment="band 10">
        <r>  0.0034  0.0011  0.0056  0.0004  0.0660  0.1552  0.1069  0.1141  0.0379 </r>
        <r>  0.0034  0.0011  0.0056  0.0004  0.0660  0.1552  0.1069  0.1141  0.0379 </r>
       </set>
       <set comment="band 11">
        <r>  0.0106  0.0029  0.0038  0.0015  0.0810  0.1489  0.0130  0.1856  0.0437 </r>
        <r>  0.0106  0.0029  0.0038  0.0015  0.0810  0.1489  0.0130  0.1856  0.0437 </r>
       </set>
       <set comment="band 12">
        <r>  0.0388  0.0105  0.0380  0.0037  0.0040  0.2163  0.0840  0.0771  0.0120 </r>
        <r>  0.0388  0.0105  0.0380  0.0037  0.0040  0.2163  0.0840  0.0771  0.0120 </r>
       </set>
       <set comment="band 13">
        <r>  0.0300  0.0358  0.1233  0.0120  0.0000  0.0272  0.2265  0.0095  0.0000 </r>
        <r>  0.0300  0.0358  0.1233  0.0120  0.0000  0.0272  0.2265  0.0095  0.0000 </r>
       </set>
       <set comment="band 14">
        <r>  0.0079  0.0357  0.0111  0.0721  0.0582  0.0214  0.0073  0.0214  0.1679 </r>
        <r>  0.0079  0.0357  0.0111  0.0721  0.0582  0.0214  0.0073  0.0214  0.1679 </r>
       </set>
       <set comment="band 15">
        <r>  0.0184  0.0331  0.0407  0.0662  0.0601  0.0439  0.0005  0.0164  0.1622 </r>
        <r>  0.0184  0.0331  0.0407  0.0662  0.0601  0.0439  0.0005  0.0164  0.1622 </r>
       </set>
       <set comment="band 16">
        <r>  0.0782  0.0968  0.0016  0.0334  0.0337  0.0176  0.0085  0.0554  0.0219 </r>
        <r>  0.0788  0.1000  0.0018  0.0345  0.0341  0.0172  0.0100  0.0545  0.0218 </r>
       </set>
      </set>
      <set comment="kpoint 27">
       <set comment="band 1">
        <r>  0.1542  0.0346  0.0257  0.0175  0.0559  0.0692  0.0076  0.0695  0.0048 </r>
        <r>  0.1542  0.0346  0.0257  0.0175  0.0559  0.0692  0.0076  0.0695  0.0048 </r>
       </set>
       <set comment="band 2">
        <r>  0.0793  0.0158  0.0402  0.0102  0.0528  0.1224  0.0036  0.1017  0.0194 </r>
        <r>  0.0793  0.0158  0.0402  0.0102  0.0528  0.1224  0.0036  0.1017  0.0194 </r>
       </set>
       <set comment="band 3">
        <r>  0.0126  0.0145  0.0072  0.0094  0.1431  0.0279  0.1564  0.0073  0.0963 </r>
        <r>  0.0126  0.0145  0.0072  0.0094  0.1431  0.0279  0.1564  0.0073  0.0963 </r>
       </set>
       <set comment="band 4">
        <r>  0.0152  0.0101  0.0189  0.0251  0.1226  0.0413  0.0490  0.0356  0.1544 </r>
        <r>  0.0152  0.0101  0.0189  0.0251  0.1226  0.0413  0.0490  0.0356  0.1544 </r>
       </set>
       <set comment="band 5">
        <r>  0.0073  0.0143  0.0025  0.0238  0.0222  0.0349  0.2604  0.0270  0.0794 </r>
        <r>  0.0073  0.0143  0.0025  0.0238  0.0222  0.0349  0.2604  0.0270  0.0794 </r>
       </set>
       <set comment="band 6">
        <r>  0.0163  0.0075  0.0168  0.0298  0.0087  0.0132  0.1205  0.1069  0.1530 </r>
        <r>  0.0163  0.0075  0.0168  0.0298  0.0087  0.0132  0.1205  0.1069  0.1530 </r>
       </set>
       <set comment="band 7">
        <r>  0.0044  0.0050  0.0019  0.0031  0.0477  0.1669  0.0149  0.1432  0.0970 </r>
        <r>  0.0044  0.0050  0.0019  0.0031  0.0477  0.1669  0.0149  0.1432  0.0970 </r>
       </set>
       <set comment="band 8">
        <r>  0.0002  0.0084  0.0022  0.0009  0.0656  0.1432  0.0093  0.2036  0.0516 </r>
        <r>  0.0002  0.0084  0.0022  0.0009  0.0656  0.1432  0.0093  0.2036  0.0516 </r>
       </set>
       <set comment="band 9">
        <r>  0.0018  0.0015  0.0043  0.0007  0.0701  0.1244  0.1508  0.0273  0.1108 </r>
        <r>  0.0018  0.0015  0.0043  0.0007  0.0701  0.1244  0.1508  0.0273  0.1108 </r>
       </set>
       <set comment="band 10">
        <r>  0.0021  0.0019  0.0010  0.0014  0.1971  0.0286  0.1081  0.0905  0.0625 </r>
        <r>  0.0021  0.0019  0.0010  0.0014  0.1971  0.0286  0.1081  0.0905  0.0625 </r>
       </set>
       <set comment="band 11">
        <r>  0.0332  0.0203  0.0141  0.0149  0.1496  0.0880  0.0035  0.0652  0.0940 </r>
        <r>  0.0332  0.0203  0.0141  0.0149  0.1496  0.0880  0.0035  0.0652  0.0940 </r>
       </set>
       <set comment="band 12">
        <r>  0.0559  0.0377  0.0557  0.0297  0.0214  0.1110  0.0686  0.0777  0.0150 </r>
        <r>  0.0559  0.0377  0.0557  0.0297  0.0214  0.1110  0.0686  0.0777  0.0150 </r>
       </set>
       <set comment="band 13">
        <r>  0.0700  0.0080  0.0123  0.1303  0.0774  0.0108  0.0267  0.0614  0.0709 </r>
        <r>  0.0700  0.0080  0.0123  0.1303  0.0774  0.0108  0.0267  0.0614  0.0709 </r>
       </set>
       <set comment="band 14">
        <r>  0.0384  0.0052  0.0551  0.1191  0.0654  0.0106  0.0216  0.0760  0.0766 </r>
        <r>  0.0384  0.0052  0.0551  0.1191  0.0654  0.0106  0.0216  0.0760  0.0766 </r>
       </set>
       <set comment="band 15">
        <r>  0.0224  0.1720  0.0107  0.0049  0.0138  0.0817  0.0810  0.0056  0.0714 </r>
        <r>  0.0224  0.1720  0.0107  0.0049  0.0138  0.0817  0.0810  0.0056  0.0714 </r>
       </set>
       <set comment="band 16">
        <r>  0.0839  0.0524  0.1056  0.0040  0.0139  0.0113  0.0706  0.0672  0.0120 </r>
        <r>  0.0838  0.0524  0.1056  0.0040  0.0139  0.0113  0.0706  0.0673  0.0120 </r>
       </set>
      </set>
      <set comment="kpoint 28">
       <set comment="band 1">
        <r>  0.0646  0.0115  0.0027  0.0015  0.0944  0.0711  0.0249  0.1598  0.0268 </r>
        <r>  0.0646  0.0115  0.0027  0.0015  0.0944  0.0711  0.0249  0.1598  0.0268 </r>
       </set>
       <set comment="band 2">
        <r>  0.0494  0.0142  0.0089  0.0128  0.1267  0.0698  0.0046  0.1185  0.0461 </r>
        <r>  0.0494  0.0142  0.0089  0.0128  0.1267  0.0698  0.0046  0.1185  0.0461 </r>
       </set>
       <set comment="band 3">
        <r>  0.0042  0.0079  0.0030  0.0119  0.1255  0.0474  0.1657  0.0522  0.0601 </r>
        <r>  0.0042  0.0079  0.0030  0.0119  0.1255  0.0474  0.1657  0.0522  0.0601 </r>
       </set>
       <set comment="band 4">
        <r>  0.0036  0.0092  0.0149  0.0126  0.1812  0.0360  0.0691  0.0681  0.0821 </r>
        <r>  0.0036  0.0092  0.0149  0.0126  0.1812  0.0360  0.0691  0.0681  0.0821 </r>
       </set>
       <set comment="band 5">
        <r>  0.0085  0.0132  0.0084  0.0296  0.0017  0.1803  0.0889  0.1195  0.0194 </r>
        <r>  0.0085  0.0132  0.0084  0.0296  0.0017  0.1803  0.0889  0.1195  0.0194 </r>
       </set>
       <set comment="band 6">
        <r>  0.0075  0.0163  0.0236  0.0584  0.0283  0.1328  0.0442  0.0656  0.0882 </r>
        <r>  0.0075  0.0163  0.0236  0.0584  0.0283  0.1328  0.0442  0.0656  0.0882 </r>
       </set>
       <set comment="band 7">
        <r>  0.0027  0.0169  0.0122  0.0272  0.0114  0.1028  0.0896  0.0747  0.1412 </r>
        <r>  0.0027  0.0169  0.0122  0.0272  0.0114  0.1028  0.0896  0.0747  0.1412 </r>
       </set>
       <set comment="band 8">
        <r>  0.0026  0.0047  0.0039  0.0155  0.0433  0.1322  0.0161  0.0901  0.1767 </r>
        <r>  0.0026  0.0047  0.0039  0.0155  0.0433  0.1322  0.0161  0.0901  0.1767 </r>
       </set>
       <set comment="band 9">
        <r>  0.0004  0.0010  0.0017  0.0003  0.0384  0.0642  0.2097  0.0440  0.1322 </r>
        <r>  0.0004  0.0010  0.0017  0.0003  0.0384  0.0642  0.2097  0.0440  0.1322 </r>
       </set>
       <set comment="band 10">
        <r>  0.0001  0.0002  0.0004  0.0000  0.1307  0.0421  0.2185  0.0709  0.0324 </r>
        <r>  0.0001  0.0002  0.0004  0.0000  0.1307  0.0421  0.2185  0.0709  0.0324 </r>
       </set>
       <set comment="band 11">
        <r>  0.0274  0.0514  0.0395  0.0895  0.1112  0.0336  0.0033  0.0235  0.0850 </r>
        <r>  0.0274  0.0514  0.0395  0.0895  0.1112  0.0336  0.0033  0.0235  0.0850 </r>
       </set>
       <set comment="band 12">
        <r>  0.0225  0.0642  0.0603  0.1152  0.0420  0.0386  0.0354  0.0236  0.0569 </r>
        <r>  0.0225  0.0642  0.0603  0.1152  0.0420  0.0386  0.0354  0.0236  0.0569 </r>
       </set>
       <set comment="band 13">
        <r>  0.1672  0.0042  0.0163  0.0418  0.0840  0.0255  0.0118  0.0847  0.0472 </r>
        <r>  0.1672  0.0042  0.0163  0.0418  0.0840  0.0255  0.0118  0.0847  0.0472 </r>
       </set>
       <set comment="band 14">
        <r>  0.1236  0.0020  0.0396  0.0718  0.0646  0.0188  0.0069  0.0978  0.0528 </r>
        <r>  0.1236  0.0020  0.0396  0.0718  0.0646  0.0188  0.0069  0.0978  0.0528 </r>
       </set>
       <set comment="band 15">
        <r>  0.0596  0.1645  0.0013  0.0330  0.0297  0.0666  0.0310  0.0188  0.0343 </r>
        <r>  0.0596  0.1645  0.0013  0.0330  0.0297  0.0666  0.0310  0.0188  0.0343 </r>
       </set>
       <set comment="band 16">
        <r>  0.0515  0.1257  0.0172  0.0237  0.0348  0.1008  0.0254  0.0263  0.0340 </r>
        <r>  0.0515  0.1257  0.0172  0.0237  0.0348  0.1008  0.0254  0.0263  0.0340 </r>
       </set>
      </set>
      <set comment="kpoint 29">
       <set comment="band 1">
        <r>  0.0722  0.0333  0.0058  0.0143  0.0361  0.1659  0.0397  0.0590  0.0252 </r>
        <r>  0.0722  0.0333  0.0058  0.0143  0.0361  0.1659  0.0397  0.0590  0.0252 </r>
       </set>
       <set comment="band 2">
        <r>  0.0320  0.0101  0.0096  0.0121  0.0195  0.2170  0.0377  0.0742  0.0435 </r>
        <r>  0.0320  0.0101  0.0096  0.0121  0.0195  0.2170  0.0377  0.0742  0.0435 </r>
       </set>
       <set comment="band 3">
        <r>  0.0107  0.0093  0.0088  0.0277  0.0832  0.0109  0.0388  0.0325  0.2460 </r>
        <r>  0.0107  0.0093  0.0088  0.0277  0.0832  0.0109  0.0388  0.0325  0.2460 </r>
       </set>
       <set comment="band 4">
        <r>  0.0082  0.0445  0.0238  0.0215  0.1116  0.0148  0.0836  0.0174  0.1433 </r>
        <r>  0.0082  0.0445  0.0238  0.0215  0.1116  0.0148  0.0836  0.0174  0.1433 </r>
       </set>
       <set comment="band 5">
        <r>  0.0073  0.0074  0.0077  0.0107  0.0296  0.0632  0.0928  0.1680  0.0874 </r>
        <r>  0.0073  0.0074  0.0077  0.0107  0.0296  0.0632  0.0928  0.1680  0.0874 </r>
       </set>
       <set comment="band 6">
        <r>  0.0087  0.0500  0.0168  0.0172  0.1081  0.0406  0.1037  0.0721  0.0507 </r>
        <r>  0.0087  0.0500  0.0168  0.0172  0.1081  0.0406  0.1037  0.0721  0.0507 </r>
       </set>
       <set comment="band 7">
        <r>  0.0080  0.0038  0.0002  0.0017  0.1248  0.0584  0.0416  0.1345  0.1085 </r>
        <r>  0.0080  0.0038  0.0002  0.0017  0.1248  0.0584  0.0416  0.1345  0.1085 </r>
       </set>
       <set comment="band 8">
        <r>  0.0023  0.0003  0.0002  0.0004  0.0739  0.1100  0.0190  0.2305  0.0477 </r>
        <r>  0.0023  0.0003  0.0002  0.0004  0.0739  0.1100  0.0190  0.2305  0.0477 </r>
       </set>
       <set comment="band 9">
        <r>  0.0001  0.0023  0.0037  0.0008  0.0267  0.1056  0.2788  0.0513  0.0228 </r>
        <r>  0.0001  0.0023  0.0037  0.0008  0.0267  0.1056  0.2788  0.0513  0.0228 </r>
       </set>
       <set comment="band 10">
        <r>  0.0001  0.0001  0.0002  0.0000  0.1274  0.0608  0.2123  0.0524  0.0425 </r>
        <r>  0.0001  0.0001  0.0002  0.0000  0.1274  0.0608  0.2123  0.0524  0.0425 </r>
       </set>
       <set comment="band 11">
        <r>  0.0536  0.0763  0.0310  0.0261  0.1640  0.0399  0.0036  0.0218  0.0580 </r>
        <r>  0.0536  0.0763  0.0310  0.0261  0.1640  0.0399  0.0036  0.0218  0.0580 </r>
       </set>
       <set comment="band 12">
        <r>  0.0354  0.1089  0.0716  0.0390  0.0791  0.0640  0.0132  0.0215  0.0330 </r>
        <r>  0.0354  0.1089  0.0716  0.0390  0.0791  0.0640  0.0132  0.0215  0.0330 </r>
       </set>
       <set comment="band 13">
        <r>  0.0167  0.0524  0.0227  0.1266  0.0448  0.0234  0.0088  0.0322  0.1344 </r>
        <r>  0.0167  0.0524  0.0227  0.1266  0.0448  0.0234  0.0088  0.0322  0.1344 </r>
       </set>
       <set comment="band 14">
        <r>  0.0902  0.0405  0.0190  0.0946  0.0346  0.0651  0.0105  0.0217  0.0994 </r>
        <r>  0.0902  0.0405  0.0190  0.0946  0.0346  0.0651  0.0105  0.0217  0.0994 </r>
       </set>
       <set comment="band 15">
        <r>  0.1078  0.0697  0.0220  0.0504  0.0125  0.0318  0.0317  0.0847  0.0374 </r>
        <r>  0.1078  0.0697  0.0220  0.0504  0.0125  0.0318  0.0317  0.0847  0.0374 </r>
       </set>
       <set comment="band 16">
        <r>  0.1628  0.0580  0.0249  0.0284  0.0040  0.0855  0.0241  0.0694  0.0119 </r>
        <r>  0.1628  0.0580  0.0249  0.0284  0.0040  0.0855  0.0241  0.0694  0.0119 </r>
       </set>
      </set>
      <set comment="kpoint 30">
       <set comment="band 1">
        <r>  0.0323  0.0164  0.0001  0.0076  0.0594  0.0698  0.0464  0.2074  0.0206 </r>
        <r>  0.0323  0.0164  0.0001  0.0076  0.0594  0.0698  0.0464  0.2074  0.0206 </r>
       </set>
       <set comment="band 2">
        <r>  0.0281  0.0202  0.0021  0.0250  0.0683  0.0588  0.0393  0.1712  0.0415 </r>
        <r>  0.0281  0.0202  0.0021  0.0250  0.0683  0.0588  0.0393  0.1712  0.0415 </r>
       </set>
       <set comment="band 3">
        <r>  0.0050  0.0268  0.0012  0.0090  0.1488  0.0724  0.1202  0.0373  0.0500 </r>
        <r>  0.0050  0.0268  0.0012  0.0090  0.1488  0.0724  0.1202  0.0373  0.0500 </r>
       </set>
       <set comment="band 4">
        <r>  0.0137  0.0101  0.0008  0.0209  0.0135  0.2199  0.0875  0.0733  0.0262 </r>
        <r>  0.0137  0.0101  0.0008  0.0209  0.0135  0.2199  0.0875  0.0733  0.0262 </r>
       </set>
       <set comment="band 5">
        <r>  0.0017  0.0256  0.0247  0.0309  0.2024  0.0167  0.0073  0.0480  0.1165 </r>
        <r>  0.0017  0.0256  0.0247  0.0309  0.2024  0.0167  0.0073  0.0480  0.1165 </r>
       </set>
       <set comment="band 6">
        <r>  0.0039  0.0190  0.0269  0.0539  0.0870  0.0883  0.0007  0.0306  0.1560 </r>
        <r>  0.0039  0.0190  0.0269  0.0539  0.0870  0.0883  0.0007  0.0306  0.1560 </r>
       </set>
       <set comment="band 7">
        <r>  0.0004  0.0049  0.0024  0.0145  0.1143  0.0859  0.0190  0.0401  0.2003 </r>
        <r>  0.0004  0.0049  0.0024  0.0145  0.1143  0.0859  0.0190  0.0401  0.2003 </r>
       </set>
       <set comment="band 8">
        <r>  0.0005  0.0011  0.0004  0.0021  0.0706  0.1670  0.0007  0.1213  0.1214 </r>
        <r>  0.0005  0.0011  0.0004  0.0021  0.0706  0.1670  0.0007  0.1213  0.1214 </r>
       </set>
       <set comment="band 9">
        <r>  0.0010  0.0004  0.0009  0.0002  0.0125  0.0566  0.3168  0.0700  0.0332 </r>
        <r>  0.0010  0.0004  0.0009  0.0002  0.0125  0.0566  0.3168  0.0700  0.0332 </r>
       </set>
       <set comment="band 10">
        <r>  0.0015  0.0003  0.0000  0.0001  0.0271  0.0549  0.3219  0.0756  0.0114 </r>
        <r>  0.0015  0.0003  0.0000  0.0001  0.0271  0.0549  0.3219  0.0756  0.0114 </r>
       </set>
       <set comment="band 11">
        <r>  0.0023  0.0509  0.0575  0.1485  0.0414  0.0204  0.0026  0.0179  0.1212 </r>
        <r>  0.0023  0.0509  0.0575  0.1485  0.0414  0.0204  0.0026  0.0179  0.1212 </r>
       </set>
       <set comment="band 12">
        <r>  0.0316  0.0547  0.0673  0.1246  0.0645  0.0083  0.0140  0.0057  0.1008 </r>
        <r>  0.0316  0.0547  0.0673  0.1246  0.0645  0.0083  0.0140  0.0057  0.1008 </r>
       </set>
       <set comment="band 13">
        <r>  0.0298  0.1148  0.0512  0.0393  0.1224  0.0203  0.0000  0.0549  0.0412 </r>
        <r>  0.0298  0.1148  0.0512  0.0393  0.1224  0.0203  0.0000  0.0549  0.0412 </r>
       </set>
       <set comment="band 14">
        <r>  0.0910  0.0682  0.0011  0.0541  0.0826  0.0325  0.0035  0.0888  0.0410 </r>
        <r>  0.0910  0.0682  0.0011  0.0541  0.0826  0.0325  0.0035  0.0888  0.0410 </r>
       </set>
       <set comment="band 15">
        <r>  0.2323  0.0361  0.0017  0.0123  0.0062  0.0807  0.0275  0.0582  0.0022 </r>
        <r>  0.2323  0.0361  0.0017  0.0123  0.0062  0.0807  0.0275  0.0582  0.0022 </r>
       </set>
       <set comment="band 16">
        <r>  0.1502  0.0648  0.0265  0.0216  0.0269  0.0952  0.0176  0.0480  0.0090 </r>
        <r>  0.1502  0.0648  0.0265  0.0216  0.0269  0.0952  0.0176  0.0480  0.0090 </r>
       </set>
      </set>
     </set>
    </set>
   </array>
  </projected>
 </calculation>
 <structure name="finalpos" >
  <crystal>
   <varray name="basis" >
    <v>       2.45881046       0.00000000      -0.00000000 </v>
    <v>      -1.22940523       2.12939232      -0.00000000 </v>
    <v>       0.00000000       0.00000000       3.88384237 </v>
   </varray>
   <i name="volume">     20.33491354 </i>
   <varray name="rec_basis" >
    <v>       0.40670073       0.23480877      -0.00000000 </v>
    <v>      -0.00000000       0.46961755      -0.00000000 </v>
    <v>       0.00000000       0.00000000       0.25747698 </v>
   </varray>
  </crystal>
  <varray name="positions" >
   <v>       0.33333333       0.66666667       0.25000000 </v>
   <v>       0.66666667       0.33333333       0.75000000 </v>
  </varray>
 </structure>
</modeling>
