
                                 *****************
                                 * O   R   C   A *
                                 *****************

                                            #,                                       
                                            ###                                      
                                            ####                                     
                                            #####                                    
                                            ######                                   
                                           ########,                                 
                                     ,,################,,,,,                         
                               ,,#################################,,                 
                          ,,##########################################,,             
                       ,#########################################, ''#####,          
                    ,#############################################,,   '####,        
                  ,##################################################,,,,####,       
                ,###########''''           ''''###############################       
              ,#####''   ,,,,##########,,,,          '''####'''          '####       
            ,##' ,,,,###########################,,,                        '##       
           ' ,,###''''                  '''############,,,                           
         ,,##''                                '''############,,,,        ,,,,,,###''
      ,#''                                            '''#######################'''  
     '                                                          ''''####''''         
             ,#######,   #######,   ,#######,      ##                                
            ,#'     '#,  ##    ##  ,#'     '#,    #''#        ,####,    ,#,          
            ##       ##  ##   ,#'  ##            #'  '#       #'       ,# #          
            ##       ##  #######   ##           ,######,      #####,      #          
            '#,     ,#'  ##    ##  '#,     ,#' ,#      #,     #,   #      #          
             '#######'   ##     ##  '#######'  #'      '#     '####' #    #          



                #########################################################
                #                        -***-                          #
                #          Department of theory and spectroscopy        #
                #                                                       #
                #                      Frank Neese                      #
                #                                                       #
                #     Directorship, Architecture, Infrastructure        #
                #                    SHARK, DRIVERS                     #
                #        Core code/Algorithms in most modules           #
                #                                                       #
                #        Max Planck Institute fuer Kohlenforschung      #
                #                Kaiser Wilhelm Platz 1                 #
                #                 D-45470 Muelheim/Ruhr                 #
                #                      Germany                          #
                #                                                       #
                #                  All rights reserved                  #
                #                        -***-                          #
                #########################################################


                         Program Version 6.1.1  -  RELEASE   -
                                (GIT: $487d211c$)
                          ($2025-11-21 10:33:24 +0100$)
                                                                         
                                  - NO-DMRG VERSION -                    
                                                                         


 With contributions from (in alphabetic order):
[Max-Planck-Institut fuer Kohlenforschung]                               
  Daniel Aravena         : Magnetic Suceptibility                        
  Michael Atanasov       : Ab Initio Ligand Field Theory (pilot matlab implementation)
  Alexander A. Auer      : GIAO ZORA, VPT2 properties, NMR spectrum      
  Ute Becker             : All parallelization in ORCA, NUMFREQ, NUMCALC 
  Giovanni Bistoni       : ED, misc. LED, open-shell LED, HFLD           
  Dmytro Bykov           : pre 5.0 version of the SCF Hessian            
  Marcos Casanova-Páez   : Triplet and SCS-CIS(D). UHF-(DLPNO)-IP/EA/STEOM-CCSD. UHF-CVS-IP/STEOM-CCSD   
  Vijay G. Chilkuri      : MRCI spin determinant printing, contributions to CSF-ICE 
  Pauline Colinet        : FMM embedding                                 
  Dipayan Datta          : RHF DLPNO-CCSD density                        
  Achintya Kumar Dutta   : EOM-CC, STEOM-CC                              
  Nicolas Foglia         : Exact transition moments, OPA infrastructure, MCD improvements    
  Dmitry Ganyushin       : Spin-Orbit,Spin-Spin,Magnetic field MRCI      
  Miquel Garcia-Rates    : C-PCM and meta-GGA Hessian, CCSD/C-PCM, Gaussian charge scheme 
  Tiago L. C. Gouveia    : GS-ROHF, GS-ROCIS                             
  Yang Guo               : DLPNO-NEVPT2, F12-NEVPT2, CIM, IAO-localization        
  Andreas Hansen         : Spin unrestricted coupled pair/coupled cluster methods 
  Ingolf Harden          : AUTO-CI MPn and infrastructure                
  Benjamin Helmich-Paris : MC-RPA, TRAH-(SCF,CASSCF), AVAS, COSX integrals, SCF dyn. polar., MC-PDFT, srDFT 
  Lee Huntington         : MR-EOM, pCC                                   
  Robert Izsak           : Overlap fitted RIJCOSX, COSX-SCS-MP3, EOM     
  Riya Kayal             : Wick's Theorem for AUTO-CI, AUTO-CI UHF-CCSDT 
  Emily Kempfer          : AUTO-CI RHF CISDT and CCSDT, approximate NEVPT4
  Christian Kollmar      : KDIIS, OOCD, Brueckner-CCSD(T), CCSD density, CASPT2, CASPT2-K, improved NEVPT2 
  Axel Koslowski         : Symmetry handling                             
  Simone Kossmann        : meta-GGA functionals, TD-DFT gradient, OOMP2, (MP2 Hessian; deprecated post 5.0) 
  Lucas Lang             : DCDCAS, Hyperfine gauge corrections, ICE-SOC+SSC
  Marvin Lechner         : AUTO-CI (C++ implementation), FIC-MRCC        
  Spencer Leger          : CASSCF response                               
  Dagmar Lenk            : GEPOL surface, SMD, ORCA-2-JSON               
  Dimitrios Liakos       : Extrapolation schemes; Compound Job, Property file
  Dimitrios Manganas     : Further ROCIS development; embedding schemes. LFT, Crystal Embedding 
  Dimitrios Pantazis     : SARC Basis sets                               
  Anastasios Papadopoulos: AUTO-CI, single reference methods and gradients 
  Taras Petrenko         : pre 6.0 DFT Hessian and TD-DFT gradient,  ECA, NRVS 
  Petra Pikulova         : Analytic Raman intensities                    
  Peter Pinski           : DLPNO-MP2, DLPNO-MP2 Gradient                 
  Shashank Vittal Rao    : ES-AILFT, MagRelax                            
  Christoph Reimann      : Effective Core Potentials                     
  Marius Retegan         : Local ZFS, SOC                                
  Christoph Riplinger    : Optimizer, TS searches, QM/MM, DLPNO-CCSD(T), (RO)-DLPNO pert. Triples 
  Michael Roemelt        : Original ROCIS implementation, recursive CI coupling coefficients
  Masaaki Saitow         : Open-shell DLPNO-CCSD energy and density      
  Barbara Sandhoefer     : DKH picture change effects                    
  Yorick L. A. Schmerwitz: GMF and freeze-and-release deltaSCF, NEB S-IDPP initial path                    
  Kantharuban Sivalingam : CASSCF convergence/infrastructure, NEVPT2, NEVPT3, NEVPT4(SD), FIC-MRCI and CEPA variants
  Bernardo de Souza      : ESD, SOC TD-DFT                               
  Georgi L. Stoychev     : AutoAux, RI-MP2 NMR, DLPNO-MP2 response, X2C  
  Van Anh Tran           : RI-MP2 g-tensors                              
  Willem Van den Heuvel  : Paramagnetic NMR                              
  Zikuan Wang            : NOTCH, Electric field optimization            
  Frank Wennmohs         : Technical directorship and infrastructure     
  Hang Xu                : AUTO-CI-Response properties                   
                                                                         
[FACCTs GmbH]                                                            
  Markus Bursch, Nicolas Foglia, Miquel Garcia-Rates, Ingolf Harden, Hagen Neugebauer, Anastasios Papadopoulos, 
  Christoph Riplinger, Bernardo de Souza, Georgi L. Stoychev                                                    
                                                                 
  APM, various basis sets, CI-OPT, improved COSX, DLPNO-Multilevel,           
  DOCKER, DRACO, updates on ESD, Fragmentator, GOAT, IRC, LR-CPCM, L-BFGS, MBIS, meta-GGA TD-DFT gradient, ML-optimized integration grids, 
  MM, NACMEs, nearIR, NEB, NEB-TS, NL-DFT gradient (VV10), 2- and 3-layer-ONIOM, interface openCOSMO-RS, QMMM,   
  Crystal-QMMM, RESP, rigid body optimization, SF, symmetry and pop. for TD-DFT, various functionals, SOLVATOR                                   
                                                                         
[Other institutions]                                                     
  V. Asgeirsson          : NEB                                           
  Christoph Bannwarth    : sTDA-DFT, sTD-DFT, PBEh-3c, B97-3c, D3        
  Giovanni Bistoni       : ETS/NOCV, ADLD/ADEX, COVALED                  
  Martin Brehm           : Molecular dynamics                            
  Ronald Cardenas        : ETS/NOCV                                      
  Martina Colucci        : COVALED                                       
  Sebastian Ehlert       : rSCAN, r2SCAN, r2SCAN-3c, D4, dhf basis sets  
  Marvin Friede          : D4 for Fr, Ra, Ac-Lr                          
  Lars Goerigk           : TD-DFT with DH, B97 family of functionals     
  Stefan Grimme          : VdW corrections, initial TS optimization, DFT functionals, gCP, sTDA/sTD-DF 
  Waldemar Hujo          : DFT-NL                                        
  H. Jonsson             : NEB                                           
  Holger Kruse           : gCP                                           
  Marcel Mueller         : wB97X-3c, vDZP basis set                      
  Hagen Neugebauer       : wr2SCAN, Native XTB                           
  Gianluca Regni         : ADLD/ADEX                                     
  Tobias Risthaus        : pre 6.0 range-separated hybrid DFT and stability analysis
  Lukas Wittmann         : regularized MP2, r2SCAN double-hybrids, wr2SCAN        
                                                                         
We gratefully acknowledge several colleagues who have allowed us to      
interface, adapt or use parts of their codes:                            
  Ed Valeev, F. Pavosevic, A. Kumar             : LibInt (2-el integral package), F12 methods 
  Garnet Chan, S. Sharma, J. Yang, R. Olivares  : DMRG                   
  Ulf Ekstrom                                   : XCFun DFT Library      
  Mihaly Kallay                                 : mrcc  (arbitrary order and MRCC methods)
  Frank Weinhold                                : gennbo (NPA and NBO analysis)           
  Simon Mueller                                 : openCOSMO-RS                            
  Christopher J. Cramer and Donald G. Truhlar   : smd solvation model                     
  S Lehtola, MJT Oliveira, MAL Marques          : LibXC Library                           
  Liviu Ungur et al                             : ANISO software                          


 Your calculation uses the libint2 library for the computation of 2-el integrals
 For citations please refer to: http://libint.valeyev.net

 Your ORCA version has been built with support for libXC version: 7.0.0
 For citations please refer to: https://libxc.gitlab.io

 This ORCA versions uses:
   CBLAS   interface :  Fast vector & matrix operations
   LAPACKE interface :  Fast linear algebra routines
   SCALAPACK package :  Parallel linear algebra routines
   Shared memory     :  Shared parallel matrices
   BLAS/LAPACK       :  OpenBLAS 0.3.29  USE64BITINT DYNAMIC_ARCH NO_AFFINITY SkylakeX SINGLE_THREADED
        Core in use  :  SkylakeX
   Copyright (c) 2011-2014, The OpenBLAS Project


  ***********************************
  * Starting time: Sun Jan 18 23:41:12 2026
  * Host name:     adroit-h11n2
  * Process ID:    3943158
  * Working dir.:  /scratch/network/asrosen/orca_demo
  ***********************************

Warning: RI is on but no J-basis has been assigned. Assigning Def2/J (nothing to worry about!)
================================================================================

----- Orbital basis set information -----
Your calculation utilizes the basis: def2-TZVP
   F. Weigend and R. Ahlrichs, Phys. Chem. Chem. Phys. 7, 3297 (2005).

----- AuxJ basis set information -----
Your calculation utilizes the auxiliary basis: def2/J
   H-Rn: F. Weigend, Phys. Chem. Chem. Phys. 8, 1057 (2006).
   Fr-Lr: K. Eichkorn, F. Weigend, O. Treutler, R. Ahlrichs; Theor. Chem. Acc. 97, 119 (1997).

================================================================================
                                        WARNINGS
                       Please study these warnings very carefully!
================================================================================


WARNING: your system is open-shell and RHF/RKS was chosen
  ===> : WILL SWITCH to UHF/UKS


WARNING: Geometry Optimization
  ===> : Switching off AutoStart
         For restart on a previous wavefunction, please use MOREAD

================================================================================
                                       INPUT FILE
================================================================================
NAME = orca.inp
|  1> ! B3LYP def2-TZVP Opt Freq NormalPrint xyzfile 
|  2> 
|  3> %pal nprocs 4 end 
|  4> 
|  5> *xyz 0 2
|  6> C 0.0 0.0 0.0
|  7> H 1.0790 0.0 0.0
|  8> H -0.5395 -0.9344 0.000
|  9> H -0.5395 0.9344 0.000
| 10> *
| 11> 
| 12>                          ****END OF INPUT****
================================================================================

                       *****************************
                       * Geometry Optimization Run *
                       *****************************

Geometry optimization settings:
Update method            Update   .... BFGS
Choice of coordinates    CoordSys .... (2022) Redundant Internals
Initial Hessian          InHess   .... Almloef's Model
Max. no of cycles        MaxIter  .... 50

Convergence Tolerances:
Energy Change            TolE     ....  5.0000e-06 Eh
Max. Gradient            TolMAXG  ....  3.0000e-04 Eh/bohr
RMS Gradient             TolRMSG  ....  1.0000e-04 Eh/bohr
Max. Displacement        TolMAXD  ....  4.0000e-03 bohr
RMS Displacement         TolRMSD  ....  2.0000e-03 bohr
Strict Convergence                .... False

------------------------------------------------------------------------------
                        ORCA OPTIMIZATION COORDINATE SETUP
------------------------------------------------------------------------------

The optimization will be done in redundant internal coordinates (2022)
Making redundant internal coordinates   ...  (2022 redundants) done
Evaluating the initial hessian          ...  (Almloef) done
Evaluating the coordinates              ...  done
Calculating the B-matrix                .... done
Calculating the G-matrix                .... done
The number of degrees of freedom        ....    7

    -----------------------------------------------------------------
                    Redundant Internal Coordinates


    -----------------------------------------------------------------
         Definition                    Initial Value    Approx d2E/dq
    -----------------------------------------------------------------
      1. B(H   1,C   0)                  1.0790         0.374950   
      2. B(H   2,C   0)                  1.0790         0.374999   
      3. B(H   3,C   0)                  1.0790         0.374999   
      4. A(H   1,C   0,H   3)          120.0011         0.294572   
      5. A(H   2,C   0,H   3)          119.9978         0.294578   
      6. A(H   1,C   0,H   2)          120.0011         0.294572   
      7. I(H   1,H   3,H   2,C   0)      0.0000         0.023132   
    -----------------------------------------------------------------

Number of atoms                         .... 4
Number of degrees of freedom            .... 7


         *************************************************************
         *                GEOMETRY OPTIMIZATION CYCLE   1            *
         *************************************************************
---------------------------------
CARTESIAN COORDINATES (ANGSTROEM)
---------------------------------
  C      0.000000    0.000000    0.000000
  H      1.079000    0.000000    0.000000
  H     -0.539500   -0.934400    0.000000
  H     -0.539500    0.934400    0.000000

----------------------------
CARTESIAN COORDINATES (A.U.)
----------------------------
  NO LB      ZA    FRAG     MASS         X           Y           Z
   0 C     6.0000    0    12.011    0.000000    0.000000    0.000000
   1 H     1.0000    0     1.008    2.039014    0.000000    0.000000
   2 H     1.0000    0     1.008   -1.019507   -1.765760    0.000000
   3 H     1.0000    0     1.008   -1.019507    1.765760    0.000000

--------------------------------
INTERNAL COORDINATES (ANGSTROEM)
--------------------------------
 C      0   0   0     0.000000000000     0.00000000     0.00000000
 H      1   0   0     1.079000000000     0.00000000     0.00000000
 H      1   2   0     1.078964137495   120.00109951     0.00000000
 H      1   2   3     1.078964137495   120.00109951   180.00000000

---------------------------
INTERNAL COORDINATES (A.U.)
---------------------------
 C      0   0   0     0.000000000000     0.00000000     0.00000000
 H      1   0   0     2.039014498501     0.00000000     0.00000000
 H      1   2   0     2.038946728188   120.00109951     0.00000000
 H      1   2   3     2.038946728188   120.00109951   180.00000000

---------------------
BASIS SET INFORMATION
---------------------
There are 2 groups of distinct atoms

 Group   1 Type C   : 11s6p2d1f contracted to 5s3p2d1f pattern {62111/411/11/1}
 Group   2 Type H   : 5s1p contracted to 3s1p pattern {311/1}

Atom   0C    basis set group =>   1
Atom   1H    basis set group =>   2
Atom   2H    basis set group =>   2
Atom   3H    basis set group =>   2
---------------------------------
AUXILIARY/J BASIS SET INFORMATION
---------------------------------
There are 2 groups of distinct atoms

 Group   1 Type C   : 12s5p4d2f1g contracted to 6s4p3d1f1g pattern {711111/2111/211/2/1}
 Group   2 Type H   : 5s2p1d contracted to 3s1p1d pattern {311/2/1}

Atom   0C    basis set group =>   1
Atom   1H    basis set group =>   2
Atom   2H    basis set group =>   2
Atom   3H    basis set group =>   2


           ************************************************************
           *        Program running with 4 parallel MPI-processes     *
           *              working on a common directory               *
           ************************************************************
------------------------------------------------------------------------------
                             ORCA STARTUP CALCULATIONS
                           -- RI-GTO INTEGRALS CHOSEN --
------------------------------------------------------------------------------
------------------------------------------------------------------------------
                   ___                                                        
                  /   \      - P O W E R E D   B Y -                         
                 /     \                                                     
                 |  |  |   _    _      __       _____    __    __             
                 |  |  |  | |  | |    /  \     |  _  \  |  |  /  |          
                  \  \/   | |  | |   /    \    | | | |  |  | /  /          
                 / \  \   | |__| |  /  /\  \   | |_| |  |  |/  /          
                |  |  |   |  __  | /  /__\  \  |    /   |      \           
                |  |  |   | |  | | |   __   |  |    \   |  |\   \          
                \     /   | |  | | |  |  |  |  | |\  \  |  | \   \       
                 \___/    |_|  |_| |__|  |__|  |_| \__\ |__|  \__/        
                                                                              
                      - O R C A' S   B I G   F R I E N D -                    
                                      &                                       
                       - I N T E G R A L  F E E D E R -                       
                                                                              
 v1 FN, 2020, v2 2021, v3 2022-2024                                           
------------------------------------------------------------------------------


----------------------
SHARK INTEGRAL PACKAGE
----------------------

Number of atoms                             ...      4
Number of basis functions                   ...     49
Number of shells                            ...     23
Maximum angular momentum                    ...      3
Integral batch strategy                     ... SHARK/LIBINT Hybrid
RI-J (if used) integral strategy            ... SPLIT-RIJ (Revised 2003 algorithm where possible)
Printlevel                                  ...      1
Contraction scheme used                     ... SEGMENTED contraction
Prescreening option                         ... SCHWARTZ
   Thresh                                   ... 2.500e-11
   Tcut                                     ... 2.500e-12
   Tpresel                                  ... 2.500e-12 
Coulomb Range Separation                    ... NOT USED
Exchange Range Separation                   ... NOT USED
Multipole approximations                    ... NOT USED
Finite Nucleus Model                        ... NOT USED
CABS basis                                  ... NOT available
Auxiliary Coulomb fitting basis             ... AVAILABLE
   # of basis functions in Aux-J            ...     82
   # of shells in Aux-J                     ...     30
   Maximum angular momentum in Aux-J        ...      4
Auxiliary J/K fitting basis                 ... NOT available
Auxiliary Correlation fitting basis         ... NOT available
Auxiliary 'external' fitting basis          ... NOT available

Checking pre-screening integrals            ... done (  0.0 sec) Dimension = 23
   => SHARK Basis and OBASIS are compatible. Storing Pre-screening
Shell pair information
Shell pair cut-off parameter TPreSel        ...   2.5e-12
Total number of shell pairs                 ...       276
Shell pairs after pre-screening             ...       276
Total number of primitive shell pairs       ...       772
Primitive shell pairs kept                  ...       739
          la=0 lb=0:    105 shell pairs
          la=1 lb=0:     84 shell pairs
          la=1 lb=1:     21 shell pairs
          la=2 lb=0:     28 shell pairs
          la=2 lb=1:     12 shell pairs
          la=2 lb=2:      3 shell pairs
          la=3 lb=0:     14 shell pairs
          la=3 lb=1:      6 shell pairs
          la=3 lb=2:      2 shell pairs
          la=3 lb=3:      1 shell pairs

Checking whether 4 symmetric matrices of dimension 49 fit in memory
:Max Core in MB      =   4096.00
 MB in use           =      3.50
 MB left             =   4092.50
 MB needed           =      0.04
 Data fit in memory  = YES
Calculating RI/J V-Matrix + Cholesky decomp.... done (  0.0 sec)
Calculating Nuclear repulsion               ... done (  0.0 sec) ENN=      9.677463331788 Eh

Diagonalization of the overlap matrix:
Smallest eigenvalue                        ... 3.447e-03
Time for diagonalization                   ...    0.000 sec
Threshold for overlap eigenvalues          ... 1.000e-07
Number of eigenvalues below threshold      ... 0
Time for construction of square roots      ...    0.001 sec
Total time needed                          ...    0.003 sec

-------------------
DFT GRID GENERATION
-------------------

General Integration Accuracy     IntAcc      ... 4.388
Radial Grid Type                 RadialGrid  ... OptM3 with GC (2021)
Angular Grid (max. ang.)         AngularGrid ... 4 (Lebedev-302)
Angular grid pruning method      GridPruning ... 4 (adaptive)
Weight generation scheme         WeightScheme... mBecke (2022)
Basis function cutoff            BFCut       ... 1.0000e-11
Integration weight cutoff        WCut        ... 1.0000e-14
Partially contracted basis set               ... off
Rotationally invariant grid construction     ... off
Angular grids for H and He will be reduced by one unit

Total number of grid points                  ...    16020
Total number of batches                      ...      252
Average number of points per batch           ...       63
Average number of grid points per atom       ...     4005

--------------------
COSX GRID GENERATION
--------------------

GRIDX 1
-------
General Integration Accuracy     IntAcc      ... 3.816
Radial Grid Type                 RadialGrid  ... OptM3 with GC (2021)
Angular Grid (max. ang.)         AngularGrid ... 1 (Lebedev-50)
Angular grid pruning method      GridPruning ... 4 (adaptive)
Weight generation scheme         WeightScheme... mBecke (2022)
Basis function cutoff            BFCut       ... 1.0000e-11
Integration weight cutoff        WCut        ... 1.0000e-14
Partially contracted basis set               ... on
Rotationally invariant grid construction     ... off
Angular grids for H and He will be reduced by one unit

Total number of grid points                  ...     2093
Total number of batches                      ...       19
Average number of points per batch           ...      110
Average number of grid points per atom       ...      523
UseSFitting                                  ... on

GRIDX 2
-------
General Integration Accuracy     IntAcc      ... 4.020
Radial Grid Type                 RadialGrid  ... OptM3 with GC (2021)
Angular Grid (max. ang.)         AngularGrid ... 2 (Lebedev-110)
Angular grid pruning method      GridPruning ... 4 (adaptive)
Weight generation scheme         WeightScheme... mBecke (2022)
Basis function cutoff            BFCut       ... 1.0000e-11
Integration weight cutoff        WCut        ... 1.0000e-14
Partially contracted basis set               ... on
Rotationally invariant grid construction     ... off
Angular grids for H and He will be reduced by one unit

Total number of grid points                  ...     4291
Total number of batches                      ...       35
Average number of points per batch           ...      122
Average number of grid points per atom       ...     1073
UseSFitting                                  ... on

GRIDX 3
-------
General Integration Accuracy     IntAcc      ... 4.338
Radial Grid Type                 RadialGrid  ... OptM3 with GC (2021)
Angular Grid (max. ang.)         AngularGrid ... 3 (Lebedev-194)
Angular grid pruning method      GridPruning ... 4 (adaptive)
Weight generation scheme         WeightScheme... mBecke (2022)
Basis function cutoff            BFCut       ... 1.0000e-11
Integration weight cutoff        WCut        ... 1.0000e-14
Partially contracted basis set               ... on
Rotationally invariant grid construction     ... off
Angular grids for H and He will be reduced by one unit

Total number of grid points                  ...     9479
Total number of batches                      ...       76
Average number of points per batch           ...      124
Average number of grid points per atom       ...     2370
UseSFitting                                  ... on
Grids setup in   0.1 sec
Initializing property integral containers    ... done (  0.0 sec)

SHARK setup successfully completed in   0.2 seconds

Maximum memory used throughout the entire STARTUP-calculation: 13.8 MB


           ************************************************************
           *        Program running with 4 parallel MPI-processes     *
           *              working on a common directory               *
           ************************************************************
-------------------------------------------------------------------------------
                                 ORCA GUESS
                   Start orbitals & Density for SCF / CASSCF
-------------------------------------------------------------------------------

------------
SCF SETTINGS
------------
Hamiltonian:
 Density Functional     Method          .... DFT(GTOs)
 Exchange Functional    Exchange        .... B88
   X-Alpha parameter    XAlpha          ....  0.666667
   Becke's b parameter  XBeta           ....  0.004200
 Correlation Functional Correlation     .... LYP
 LDA part of GGA corr.  LDAOpt          .... VWN-5
 Gradients option       PostSCFGGA      .... off
 Hybrid DFT is turned on
   Fraction HF Exchange ScalHFX         ....  0.200000
   Scaling of DF-GGA-X  ScalDFX         ....  0.720000
   Scaling of DF-GGA-C  ScalDFC         ....  0.810000
   Scaling of DF-LDA-C  ScalLDAC        ....  1.000000
   Perturbative correction              ....  0.000000
   NL short-range parameter             ....  4.800000
 RI-approximation to the Coulomb term is turned on
   Number of AuxJ basis functions       .... 82
   RIJ-COSX (HFX calculated with COS-X)).... on


General Settings:
 Integral files         IntName         .... orca
 Hartree-Fock type      HFTyp           .... UHF
 Total Charge           Charge          ....    0
 Multiplicity           Mult            ....    2
 Number of Electrons    NEL             ....    9
 Basis Dimension        Dim             ....   49
 Nuclear Repulsion      ENuc            ....      9.6774633318 Eh

Convergence Acceleration:
 AO-DIIS                CNVDIIS         .... on
   Start iteration      DIISMaxIt       ....    12
   Startup error        DIISStart       ....  0.200000
   # of expansion vecs  DIISMaxEq       ....     5
   Bias factor          DIISBfac        ....   1.050
   Max. coefficient     DIISMaxC        ....  10.000
 MO-DIIS                CNVKDIIS        .... off
 Trust-Rad. Augm. Hess. CNVTRAH         .... auto
   Auto Start mean grad. ratio tolernc. ....  1.125000
   Auto Start start iteration           ....    50
   Auto Start num. interpolation iter.  ....    10
   Max. Number of Micro iterations      ....    24
   Max. Number of Macro iterations      .... Maxiter - #DIIS iter
   Number of Davidson start vectors     ....     2
   Converg. threshold    (grad. norm)   ....   1.000e-05
   Grad. Scal. Fac. for Micro threshold ....   0.100
   Minimum threshold for Micro iter.    ....   1.000e-02
   NR start threshold (gradient norm)   ....   1.000e-04
   Initial trust radius                 ....   0.400
   Minimum AH scaling param. (alpha)    ....   1.000
   Maximum AH scaling param. (alpha)    .... 1000.000
   Quad. conv. algorithm                .... NR
   White noise on init. David. guess    .... on
   Maximum white noise                  ....   0.010
   Pseudo random numbers                .... off
   Inactive MOs                         .... canonical
   Orbital update algorithm             .... Taylor
   Preconditioner                       .... Diag
   Full preconditioner red. dimension   ....   250
 SOSCF                 CNVSOSCF           .... on
   Start iteration     SOSCFMaxIt         ....   150
   Startup grad/error  SOSCFStart         ....  0.003300
   Hessian update      SOSCFHessUp        .... L-BFGS
   Autom. constraints  SOSCFAutoConstrain .... off
 Level Shifting         CNVShift        .... on
   Level shift para.    LevelShift      ....    0.2500
   Turn off err/grad.   ShiftErr        ....    0.0010
 Zerner damping         CNVZerner       .... off
 Static damping         CNVDamp         .... on
   Fraction old density DampFac         ....    0.7000
   Max. Damping (<1)    DampMax         ....    0.9800
   Min. Damping (>=0)   DampMin         ....    0.0000
   Turn off err/grad.   DampErr         ....    0.1000

SCF Procedure:
 Maximum # iterations   MaxIter         ....   125
 SCF integral mode      SCFMode         .... Direct
   Integral package                     .... SHARK and LIBINT hybrid scheme
 Reset frequency        DirectResetFreq ....    20
 Integral Threshold     Thresh          ....  2.500e-11 Eh
 Primitive CutOff       TCut            ....  2.500e-12 Eh

Convergence Tolerance:
 Convergence Check Mode ConvCheckMode   .... Total+1el-Energy
 Convergence forced     ConvForced      .... 0
 Energy Change          TolE            ....  1.000e-08 Eh
 1-El. energy change                    ....  1.000e-05 Eh
 Orbital Gradient       TolG            ....  1.000e-05
 Orbital Rotation angle TolX            ....  1.000e-05
 DIIS Error             TolErr          ....  5.000e-07

------------------------------
INITIAL GUESS: MODEL POTENTIAL
------------------------------
Loading Hartree-Fock densities                     ... done
Calculating cut-offs                               ... done
Initializing the effective Hamiltonian             ... done
Setting up the integral package (SHARK)            ... done
Starting the Coulomb interaction                   ... done (   0.0 sec)
Making the grid                                    ... done (   0.0 sec)
Mapping shells                                     ... done
Starting the XC term evaluation                    ... done (   0.0 sec)
  promolecular density results
     # of electrons  =      8.998624517
     EX              =     -5.971070833
     EC              =     -0.260386949
     EX+EC           =     -6.231457781
Transforming the Hamiltonian                       ... done (   0.0 sec)
Diagonalizing the Hamiltonian                      ... done (   0.0 sec)
Back transforming the eigenvectors                 ... done (   0.0 sec)
Now organizing SCF variables                       ... done
                      ------------------
                      INITIAL GUESS DONE (   0.0 sec)
                      ------------------
             **** ENERGY FILE WAS UPDATED (orca.en.tmp) ****
Finished Guess after   0.3 sec
Maximum memory used throughout the entire GUESS-calculation: 7.1 MB


           ************************************************************
           *        Program running with 4 parallel MPI-processes     *
           *              working on a common directory               *
           ************************************************************

-------------------------------------------------------------------------------------------
                                      ORCA LEAN-SCF
                              memory conserving SCF solver
-------------------------------------------------------------------------------------------

----------------------------------------D-I-I-S--------------------------------------------
Iteration    Energy (Eh)           Delta-E    RMSDP     MaxDP     DIISErr   Damp  Time(sec)
-------------------------------------------------------------------------------------------
               ***  Starting incremental Fock matrix formation  ***
    1    -39.7843775368632535     0.00e+00  2.50e-03  1.95e-02  8.66e-02  0.700   0.1
    2    -39.8031718801587786    -1.88e-02  1.83e-03  1.63e-02  4.82e-02  0.700   0.1
                               ***Turning on AO-DIIS***
    3    -39.8115293681880047    -8.36e-03  7.10e-04  5.09e-03  2.11e-02  0.700   0.1
    4    -39.8162844315505637    -4.76e-03  1.18e-03  7.33e-03  1.35e-02  0.000   0.1
    5    -39.8265447258863503    -1.03e-02  2.81e-04  3.85e-03  3.38e-03  0.000   0.1
                              *** Initializing SOSCF ***
---------------------------------------S-O-S-C-F--------------------------------------
Iteration    Energy (Eh)           Delta-E    RMSDP     MaxDP     MaxGrad    Time(sec)
--------------------------------------------------------------------------------------
    6    -39.8265915819390344    -4.69e-05  1.27e-04  1.60e-03  1.04e-03     0.1
               *** Restarting incremental Fock matrix formation ***
    7    -39.8265865517149535     5.03e-06  6.87e-05  8.97e-04  4.69e-04     0.1
    8    -39.8265879680794725    -1.42e-06  2.69e-05  2.46e-04  1.12e-04     0.1
    9    -39.8265881544957807    -1.86e-07  5.00e-06  4.25e-05  3.84e-05     0.1
   10    -39.8265881593988524    -4.90e-09  3.04e-06  4.22e-05  3.93e-05     0.1
                 **** Energy Check signals convergence ****

               *****************************************************
               *                     SUCCESS                       *
               *           SCF CONVERGED AFTER  10 CYCLES          *
               *****************************************************

Recomputing exchange energy using gridx3       ... done (    0.079 sec)
Old exchange energy                            :     -1.242793363 Eh
New exchange energy                            :     -1.242798885 Eh
Exchange energy change after final integration :     -0.000005521 Eh
Total energy after final integration           :    -39.826593687 Eh
             **** ENERGY FILE WAS UPDATED (orca.en.tmp) ****

----------------
TOTAL SCF ENERGY
----------------

Total Energy       :        -39.82659368674327 Eh           -1083.73671 eV

Components:
Nuclear Repulsion  :          9.67746333178763 Eh             263.33717 eV
Electronic Energy  :        -49.50405149706275 Eh           -1347.07373 eV
One Electron Energy:        -71.66657349901305 Eh           -1950.14661 eV
Two Electron Energy:         22.16252200195031 Eh             603.07288 eV

Virial components:
Potential Energy   :        -79.44532501328518 Eh           -2161.81720 eV
Kinetic Energy     :         39.61873132654191 Eh            1078.08049 eV
Virial Ratio       :          2.00524656780370

DFT components:
N(Alpha)           :        4.999991641548 electrons
N(Beta)            :        3.999998790651 electrons
N(Total)           :        8.999990432200 electrons
E(X)               :       -4.916465817709 Eh       
E(C)               :       -0.309703897858 Eh       
E(XC)              :       -5.226169715567 Eh       

---------------
SCF CONVERGENCE
---------------

  Last Energy change         ...    4.9031e-09  Tolerance :   1.0000e-08
  Last MAX-Density change    ...    4.2234e-05  Tolerance :   1.0000e-07
  Last RMS-Density change    ...    3.0445e-06  Tolerance :   5.0000e-09
  Last DIIS Error            ...    1.0365e-03  Tolerance :   5.0000e-07
  Last Orbital Gradient      ...    3.9290e-05  Tolerance :   1.0000e-05
  Last Orbital Rotation      ...    5.4886e-05  Tolerance :   1.0000e-05


----------------------
UHF SPIN CONTAMINATION
----------------------

Warning: in a DFT calculation there is little theoretical justification to 
         calculate <S**2> as in Hartree-Fock theory. We will do it anyways
         but you should keep in mind that the values have only limited relevance

Expectation value of <S**2>     :     0.753674
Ideal value S*(S+1) for S=0.5   :     0.750000
Deviation                       :     0.003674

----------------
ORBITAL ENERGIES
----------------
                 SPIN UP ORBITALS
  NO   OCC          E(Eh)            E(eV) 
   0   1.0000     -10.180964      -277.0381 
   1   1.0000      -0.686801       -18.6888 
   2   1.0000      -0.422306       -11.4915 
   3   1.0000      -0.422301       -11.4914 
   4   1.0000      -0.233807        -6.3622 
   5   0.0000       0.061526         1.6742 
   6   0.0000       0.124488         3.3875 
   7   0.0000       0.124495         3.3877 
   8   0.0000       0.204658         5.5690 
   9   0.0000       0.204671         5.5694 
  10   0.0000       0.227460         6.1895 
  11   0.0000       0.234210         6.3732 
  12   0.0000       0.444592        12.0980 
  13   0.0000       0.485759        13.2182 
  14   0.0000       0.485762        13.2182 
  15   0.0000       0.616417        16.7735 

                 SPIN DOWN ORBITALS
  NO   OCC          E(Eh)            E(eV) 
   0   1.0000     -10.166706      -276.6501 
   1   1.0000      -0.647130       -17.6093 
   2   1.0000      -0.412856       -11.2344 
   3   1.0000      -0.412846       -11.2341 
   4   0.0000      -0.072632        -1.9764 
   5   0.0000       0.069736         1.8976 
   6   0.0000       0.126567         3.4441 
   7   0.0000       0.126574         3.4442 
   8   0.0000       0.206427         5.6172 
   9   0.0000       0.206427         5.6172 
  10   0.0000       0.254876         6.9355 
  11   0.0000       0.276602         7.5267 
  12   0.0000       0.465142        12.6571 
  13   0.0000       0.491435        13.3726 
  14   0.0000       0.491441        13.3728 
*Only the first 10 virtual orbitals were printed.

                    ********************************
                    * MULLIKEN POPULATION ANALYSIS *
                    ********************************

--------------------------------------------
MULLIKEN ATOMIC CHARGES AND SPIN POPULATIONS
--------------------------------------------
   0 C :   -0.374362    1.109956
   1 H :    0.124764   -0.036672
   2 H :    0.124799   -0.036642
   3 H :    0.124799   -0.036642
Sum of atomic charges         :    0.0000000
Sum of atomic spin populations:    1.0000000

-----------------------------------------------------
MULLIKEN REDUCED ORBITAL CHARGES AND SPIN POPULATIONS
-----------------------------------------------------
CHARGE
  0 C s       :     3.332543  s :     3.332543
      pz      :     0.982927  p :     3.030529
      px      :     1.023769
      py      :     1.023833
      dz2     :     0.004797  d :     0.008849
      dxz     :     0.000000
      dyz     :     0.000000
      dx2y2   :     0.002023
      dxy     :     0.002028
      f0      :    -0.000001  f :     0.002441
      f+1     :     0.000498
      f-1     :     0.000498
      f+2     :     0.000000
      f-2     :     0.000000
      f+3     :     0.001447
      f-3     :    -0.000000

  1 H s       :     0.852823  s :     0.852823
      pz      :     0.005691  p :     0.022414
      px      :     0.013184
      py      :     0.003538

  2 H s       :     0.852789  s :     0.852789
      pz      :     0.005692  p :     0.022412
      px      :     0.005949
      py      :     0.010771

  3 H s       :     0.852789  s :     0.852789
      pz      :     0.005692  p :     0.022412
      px      :     0.005949
      py      :     0.010771


SPIN
  0 C s       :     0.060857  s :     0.060857
      pz      :     0.982927  p :     1.052606
      px      :     0.034865
      py      :     0.034813
      dz2     :    -0.004769  d :    -0.002051
      dxz     :     0.000000
      dyz     :     0.000000
      dx2y2   :     0.001361
      dxy     :     0.001357
      f0      :    -0.000001  f :    -0.001456
      f+1     :    -0.000690
      f-1     :    -0.000691
      f+2     :     0.000000
      f-2     :     0.000000
      f+3     :    -0.000074
      f-3     :    -0.000000

  1 H s       :    -0.042803  s :    -0.042803
      pz      :     0.005691  p :     0.006131
      px      :     0.000352
      py      :     0.000088

  2 H s       :    -0.042775  s :    -0.042775
      pz      :     0.005692  p :     0.006133
      px      :     0.000155
      py      :     0.000287

  3 H s       :    -0.042775  s :    -0.042775
      pz      :     0.005692  p :     0.006133
      px      :     0.000155
      py      :     0.000287


------------------------
MULLIKEN OVERLAP CHARGES
------------------------
B(  0-C ,  1-H ) :   0.7960 B(  0-C ,  2-H ) :   0.7960 B(  0-C ,  3-H ) :   0.7960 
B(  1-H ,  2-H ) :  -0.0556 B(  1-H ,  3-H ) :  -0.0556 B(  2-H ,  3-H ) :  -0.0556 



                     *******************************
                     * LOEWDIN POPULATION ANALYSIS *
                     *******************************

-------------------------------------------
LOEWDIN ATOMIC CHARGES AND SPIN POPULATIONS
-------------------------------------------
   0 C :   -0.265856    0.993741
   1 H :    0.088624    0.002079
   2 H :    0.088616    0.002090
   3 H :    0.088616    0.002090

----------------------------------------------------
LOEWDIN REDUCED ORBITAL CHARGES AND SPIN POPULATIONS
----------------------------------------------------
CHARGE
  0 C s       :     3.000747  s :     3.000747
      pz      :     0.948233  p :     3.184038
      px      :     1.117891
      py      :     1.117914
      dz2     :     0.005791  d :     0.072582
      dxz     :     0.000000
      dyz     :     0.000000
      dx2y2   :     0.033395
      dxy     :     0.033396
      f0      :     0.000119  f :     0.008489
      f+1     :     0.002700
      f-1     :     0.002700
      f+2     :     0.000000
      f-2     :     0.000000
      f+3     :     0.002969
      f-3     :     0.000000

  1 H s       :     0.841462  s :     0.841462
      pz      :     0.017215  p :     0.069914
      px      :     0.040237
      py      :     0.012462

  2 H s       :     0.841466  s :     0.841466
      pz      :     0.017216  p :     0.069919
      px      :     0.019408
      py      :     0.033294

  3 H s       :     0.841466  s :     0.841466
      pz      :     0.017216  p :     0.069919
      px      :     0.019408
      py      :     0.033294


SPIN
  0 C s       :     0.026347  s :     0.026347
      pz      :     0.948233  p :     0.976188
      px      :     0.013983
      py      :     0.013972
      dz2     :    -0.003752  d :    -0.007033
      dxz     :     0.000000
      dyz     :     0.000000
      dx2y2   :    -0.001641
      dxy     :    -0.001640
      f0      :     0.000119  f :    -0.001761
      f+1     :    -0.000736
      f-1     :    -0.000736
      f+2     :     0.000000
      f-2     :     0.000000
      f+3     :    -0.000408
      f-3     :    -0.000000

  1 H s       :    -0.018337  s :    -0.018337
      pz      :     0.017215  p :     0.020417
      px      :     0.002974
      py      :     0.000227

  2 H s       :    -0.018327  s :    -0.018327
      pz      :     0.017216  p :     0.020417
      px      :     0.000914
      py      :     0.002287

  3 H s       :    -0.018327  s :    -0.018327
      pz      :     0.017216  p :     0.020417
      px      :     0.000914
      py      :     0.002287


---------------------------------
LOEWDIN BOND ORDERS (THRESH 0.050000)
---------------------------------
B(  0-C ,  1-H ) :   1.0020 B(  0-C ,  2-H ) :   1.0020 B(  0-C ,  3-H ) :   1.0020 


------------------------------------------
LOEWDIN REDUCED ORBITAL POPULATIONS PER MO
-------------------------------------------
THRESHOLD FOR PRINTING IS 0.1%%
SPIN UP
                      0         1         2         3         4         5   
                 -10.18096  -0.68680  -0.42231  -0.42230  -0.23381   0.06153
                   1.00000   1.00000   1.00000   1.00000   1.00000   0.00000
                  --------  --------  --------  --------  --------  --------
 0 C  s              99.6      51.7       0.0       0.0       0.0      19.3
 0 C  pz              0.0       0.0       0.0       0.0      94.8       0.0
 0 C  px              0.0       0.0       0.0      56.6       0.0       0.0
 0 C  py              0.0       0.0      56.6       0.0       0.0       0.0
 0 C  dz2             0.0       0.1       0.0       0.0       0.0       4.9
 0 C  dx2y2           0.0       0.0       0.0       1.6       0.0       0.0
 0 C  dxy             0.0       0.0       1.6       0.0       0.0       0.0
 0 C  f+3             0.0       0.1       0.0       0.0       0.0       0.4
 1 H  s               0.1      14.6       0.0      26.5       0.0      21.2
 1 H  pz              0.0       0.0       0.0       0.0       1.7       0.0
 1 H  px              0.1       1.4       0.0       0.7       0.0       3.9
 1 H  py              0.0       0.0       0.6       0.0       0.0       0.0
 2 H  s               0.1      14.6      19.9       6.6       0.0      21.2
 2 H  pz              0.0       0.0       0.0       0.0       1.7       0.0
 2 H  px              0.0       0.4       0.5       0.2       0.0       1.0
 2 H  py              0.0       1.1       0.2       0.5       0.0       3.0
 3 H  s               0.1      14.6      19.9       6.6       0.0      21.2
 3 H  pz              0.0       0.0       0.0       0.0       1.7       0.0
 3 H  px              0.0       0.4       0.5       0.2       0.0       1.0
 3 H  py              0.0       1.1       0.2       0.5       0.0       3.0

                      6         7         8         9        10        11   
                   0.12449   0.12450   0.20466   0.20467   0.22746   0.23421
                   0.00000   0.00000   0.00000   0.00000   0.00000   0.00000
                  --------  --------  --------  --------  --------  --------
 0 C  s               0.0       0.0       0.0       0.0       0.0      65.4
 0 C  pz              0.0       0.0       0.0       0.0      99.9       0.0
 0 C  px             14.8       0.0      75.4       0.0       0.0       0.0
 0 C  py              0.0      14.8       0.0      75.4       0.0       0.0
 0 C  dz2             0.0       0.0       0.0       0.0       0.0      20.7
 0 C  dx2y2          10.3       0.0      12.7       0.0       0.0       0.0
 0 C  dxy             0.0      10.3       0.0      12.7       0.0       0.0
 0 C  f+1             0.1       0.0       0.2       0.0       0.0       0.0
 0 C  f-1             0.0       0.1       0.0       0.2       0.0       0.0
 0 C  f+3             0.0       0.0       0.0       0.0       0.0       0.6
 1 H  s              43.8       0.0       6.5       0.0       0.0       4.4
 1 H  px              4.5       0.0       0.1       0.0       0.0       0.1
 1 H  py              0.0       1.6       0.0       1.2       0.0       0.0
 2 H  s              11.0      32.8       1.6       4.9       0.0       4.4
 2 H  px              0.2       2.2       0.8       0.1       0.0       0.0
 2 H  py              2.2       1.6       0.1       0.2       0.0       0.0
 3 H  s              10.9      32.8       1.6       4.9       0.0       4.4
 3 H  px              0.2       2.2       0.8       0.1       0.0       0.0
 3 H  py              2.2       1.6       0.1       0.2       0.0       0.0

                     12        13        14        15        16        17   
                   0.44459   0.48576   0.48576   0.61642   0.61650   0.85405
                   0.00000   0.00000   0.00000   0.00000   0.00000   0.00000
                  --------  --------  --------  --------  --------  --------
 0 C  s              26.6       0.0       0.0       0.0       0.0       6.7
 0 C  px              0.0      26.1       0.0       0.0       0.0       0.0
 0 C  py              0.0       0.0      26.1       0.0       0.0       0.0
 0 C  dz2             9.2       0.0       0.0       0.0       0.0      60.7
 0 C  dxz             0.0       0.0       0.0       0.0      86.9       0.0
 0 C  dyz             0.0       0.0       0.0      86.9       0.0       0.0
 0 C  dx2y2           0.0      14.4       0.0       0.0       0.0       0.0
 0 C  dxy             0.0       0.0      14.4       0.0       0.0       0.0
 0 C  f+1             0.0       1.0       0.0       0.0       0.0       0.0
 0 C  f-1             0.0       0.0       1.0       0.0       0.0       0.0
 0 C  f+3             3.3       0.0       0.0       0.0       0.0       4.8
 1 H  s              16.0      30.7       0.0       0.0       0.0       5.6
 1 H  pz              0.0       0.0       0.0       0.0       8.7       0.0
 1 H  px              4.3       7.2       0.0       0.0       0.0       3.7
 1 H  py              0.0       0.0       1.1       0.0       0.0       0.0
 2 H  s              16.0       7.7      23.0       0.0       0.0       5.6
 2 H  pz              0.0       0.0       0.0       6.5       2.2       0.0
 2 H  px              1.1       0.0       2.6       0.0       0.0       0.9
 2 H  py              3.2       2.6       3.0       0.0       0.0       2.8
 3 H  s              16.0       7.7      23.0       0.0       0.0       5.6
 3 H  pz              0.0       0.0       0.0       6.5       2.2       0.0
 3 H  px              1.1       0.0       2.6       0.0       0.0       0.9
 3 H  py              3.2       2.6       3.0       0.0       0.0       2.8

                     18        19        20        21        22        23   
                   0.89448   0.89453   1.32368   1.37385   1.47862   1.52757
                   0.00000   0.00000   0.00000   0.00000   0.00000   0.00000
                  --------  --------  --------  --------  --------  --------
 0 C  s               0.0       0.0      90.1       0.0       0.0       0.0
 0 C  pz              0.0       0.0       0.0      87.8       0.0       0.0
 0 C  px              8.7       0.0       0.0       0.0       0.0      81.1
 0 C  py              0.0       8.7       0.0       0.0       0.0       0.0
 0 C  dz2             0.0       0.0       2.0       0.0       0.0       0.0
 0 C  dx2y2          36.6       0.0       0.0       0.0       0.0       0.3
 0 C  dxy             0.0      36.6       0.0       0.0       0.0       0.0
 0 C  f+1             2.6       0.0       0.0       0.0       0.0       3.4
 0 C  f-1             0.0       2.6       0.0       0.0       0.0       0.0
 0 C  f+3             0.0       0.0       6.7       0.0       0.0       0.0
 0 C  f-3             0.0       0.0       0.0       0.0      16.0       0.0
 1 H  s              16.1       0.0       0.3       0.0       0.0       8.1
 1 H  pz              0.0       0.0       0.0       4.1       0.0       0.0
 1 H  px             10.6       0.0       0.1       0.0       0.0       1.5
 1 H  py              0.0       8.1       0.0       0.0      28.0       0.0
 2 H  s               4.0      12.1       0.3       0.0       0.0       2.0
 2 H  pz              0.0       0.0       0.0       4.0       0.0       0.0
 2 H  px              8.7       0.0       0.0       0.0      21.0       0.1
 2 H  py              0.0       9.9       0.1       0.0       7.0       0.7
 3 H  s               4.0      12.1       0.3       0.0       0.0       2.0
 3 H  pz              0.0       0.0       0.0       4.0       0.0       0.0
 3 H  px              8.7       0.0       0.0       0.0      21.0       0.1
 3 H  py              0.0       9.9       0.1       0.0       7.0       0.7

                     24        25        26        27        28        29   
                   1.52760   1.77525   1.83493   1.83494   1.95638   2.02414
                   0.00000   0.00000   0.00000   0.00000   0.00000   0.00000
                  --------  --------  --------  --------  --------  --------
 0 C  s               0.0       0.0       0.0       0.0       2.8       0.0
 0 C  pz              0.0      14.9       0.0       0.0       0.0       0.0
 0 C  px              0.0       0.0       0.0       0.0       0.0       8.1
 0 C  py             81.1       0.0       0.0       0.0       0.0       0.0
 0 C  dz2             0.0       0.0       0.0       0.0       5.4       0.0
 0 C  dxz             0.0       0.0       0.0      10.9       0.0       0.0
 0 C  dyz             0.0       0.0      10.9       0.0       0.0       0.0
 0 C  dx2y2           0.0       0.0       0.0       0.0       0.0       2.6
 0 C  dxy             0.3       0.0       0.0       0.0       0.0       0.0
 0 C  f0              0.0      17.8       0.0       0.0       0.0       0.0
 0 C  f+1             0.0       0.0       0.0       0.0       0.0      19.2
 0 C  f-1             3.4       0.0       0.0       0.0       0.0       0.0
 0 C  f+2             0.0       0.0       0.0      21.1       0.0       0.0
 0 C  f-2             0.0       0.0      21.1       0.0       0.0       0.0
 0 C  f+3             0.0       0.0       0.0       0.0      24.3       0.0
 1 H  s               0.0       0.0       0.0       0.0      20.9      26.9
 1 H  pz              0.0      22.5       0.0      45.3       0.0       0.0
 1 H  px              0.0       0.0       0.0       0.0       1.6       0.4
 1 H  py              0.5       0.0       0.0       0.0       0.0       0.0
 2 H  s               6.1       0.0       0.0       0.0      20.9       6.7
 2 H  pz              0.0      22.4      34.0      11.3       0.0       0.0
 2 H  px              0.7       0.0       0.0       0.0       0.4      10.0
 2 H  py              0.6       0.0       0.0       0.0       1.2       4.7
 3 H  s               6.1       0.0       0.0       0.0      20.9       6.7
 3 H  pz              0.0      22.4      34.0      11.3       0.0       0.0
 3 H  px              0.7       0.0       0.0       0.0       0.4      10.0
 3 H  py              0.6       0.0       0.0       0.0       1.2       4.7

                     30        31        32        33        34        35   
                   2.02415   2.36273   2.36277   2.54846   2.56289   2.56291
                   0.00000   0.00000   0.00000   0.00000   0.00000   0.00000
                  --------  --------  --------  --------  --------  --------
 0 C  s               0.0       0.0       0.0      14.4       0.0       0.0
 0 C  px              0.0       0.0       0.8       0.0       8.2       0.0
 0 C  py              8.1       0.8       0.0       0.0       0.0       8.2
 0 C  dz2             0.0       0.0       0.0      39.4       0.0       0.0
 0 C  dx2y2           0.0       0.0      29.8       0.0      22.3       0.0
 0 C  dxy             2.6      29.8       0.0       0.0       0.0      22.3
 0 C  f+1             0.0       0.0      14.9       0.0       0.4       0.0
 0 C  f-1            19.2      14.9       0.0       0.0       0.0       0.4
 0 C  f+3             0.0       0.0       0.0       0.1       0.0       0.0
 1 H  s               0.0       0.0       4.5       5.1      16.6       0.0
 1 H  px              0.0       0.0       3.6      10.4      23.8       0.0
 1 H  py             19.5      28.2       0.0       0.0       0.0       5.6
 2 H  s              20.2       3.4       1.1       5.0       4.2      12.5
 2 H  px              4.7       2.2      19.9       2.6       0.3       9.8
 2 H  py              0.4       7.6       2.2       7.7       9.9       9.4
 3 H  s              20.2       3.4       1.1       5.0       4.2      12.5
 3 H  px              4.7       2.2      19.9       2.6       0.3       9.8
 3 H  py              0.4       7.6       2.2       7.7       9.9       9.4

                     36        37        38        39        40        41   
                   2.92684   2.92692   3.13598   3.15352   3.15360   3.20106
                   0.00000   0.00000   0.00000   0.00000   0.00000   0.00000
                  --------  --------  --------  --------  --------  --------
 0 C  pz              0.0       0.0       2.6       0.0       0.0       0.0
 0 C  px              0.0       0.0       0.0       0.0       0.0       3.7
 0 C  dxz             0.0      97.0       0.0       5.2       0.0       0.0
 0 C  dyz            97.0       0.0       0.0       0.0       5.2       0.0
 0 C  dx2y2           0.0       0.0       0.0       0.0       0.0      35.7
 0 C  f0              0.0       0.0      82.1       0.0       0.0       0.0
 0 C  f+1             0.0       0.0       0.0       0.0       0.0      44.1
 0 C  f+2             0.0       2.9       0.0      75.9       0.0       0.0
 0 C  f-2             2.9       0.0       0.0       0.0      75.9       0.0
 1 H  s               0.0       0.0       0.0       0.0       0.0       6.0
 1 H  pz              0.0       0.0       5.1      12.6       0.0       0.0
 1 H  px              0.0       0.0       0.0       0.0       0.0       4.9
 2 H  s               0.0       0.0       0.0       0.0       0.0       1.5
 2 H  pz              0.0       0.0       5.1       3.2       9.4       0.0
 2 H  px              0.0       0.0       0.0       0.0       0.0       0.4
 2 H  py              0.0       0.0       0.0       0.0       0.0       0.8
 3 H  s               0.0       0.0       0.0       0.0       0.0       1.5
 3 H  pz              0.0       0.0       5.1       3.2       9.4       0.0
 3 H  px              0.0       0.0       0.0       0.0       0.0       0.4
 3 H  py              0.0       0.0       0.0       0.0       0.0       0.8

                     42        43        44        45        46        47   
                   3.20109   3.43887   3.62523   4.06825   4.06829   4.48148
                   0.00000   0.00000   0.00000   0.00000   0.00000   0.00000
                  --------  --------  --------  --------  --------  --------
 0 C  s               0.0       8.3       0.0       0.0       0.0      16.2
 0 C  px              0.0       0.0       0.0      16.6       0.0       0.0
 0 C  py              3.6       0.0       0.0       0.0      16.6       0.0
 0 C  dz2             0.0      45.0       0.0       0.0       0.0      12.6
 0 C  dx2y2           0.0       0.0       0.0      33.8       0.0       0.0
 0 C  dxy            35.7       0.0       0.0       0.0      33.8       0.0
 0 C  f+1             0.0       0.0       0.0      14.0       0.0       0.0
 0 C  f-1            44.1       0.0       0.0       0.0      14.0       0.0
 0 C  f+3             0.0      19.9       0.0       0.0       0.0      39.7
 0 C  f-3             0.0       0.0      84.0       0.0       0.0       0.0
 1 H  s               0.0       2.4       0.0      14.2       0.0       9.4
 1 H  px              0.0       6.6       0.0       9.3       0.0       1.1
 1 H  py              0.0       0.0       5.3       0.0       0.2       0.0
 2 H  s               4.5       2.4       0.0       3.6      10.7       9.4
 2 H  px              0.8       1.6       4.0       1.2       1.3       0.3
 2 H  py              2.9       4.9       1.3       1.3       5.8       0.8
 3 H  s               4.5       2.4       0.0       3.6      10.7       9.4
 3 H  px              0.8       1.6       4.0       1.2       1.3       0.3
 3 H  py              2.9       4.9       1.3       1.3       5.8       0.8

                     48   
                  21.90707
                   0.00000
                  --------
 0 C  s              98.9
 0 C  dz2             0.1
 1 H  s               0.2
 1 H  px              0.1
 2 H  s               0.2
 3 H  s               0.2

SPIN DOWN
                      0         1         2         3         4         5   
                 -10.16671  -0.64713  -0.41286  -0.41285  -0.07263   0.06974
                   1.00000   1.00000   1.00000   1.00000   0.00000   0.00000
                  --------  --------  --------  --------  --------  --------
 0 C  s              99.7      49.1       0.0       0.0       0.0      20.0
 0 C  pz              0.0       0.0       0.0       0.0      94.7       0.0
 0 C  px              0.0       0.0       0.0      55.2       0.0       0.0
 0 C  py              0.0       0.0      55.2       0.0       0.0       0.0
 0 C  dz2             0.0       0.5       0.0       0.0       0.0       3.8
 0 C  dx2y2           0.0       0.0       0.0       1.8       0.0       0.0
 0 C  dxy             0.0       0.0       1.8       0.0       0.0       0.0
 0 C  f+1             0.0       0.0       0.0       0.2       0.0       0.0
 0 C  f-1             0.0       0.0       0.2       0.0       0.0       0.0
 0 C  f+3             0.0       0.2       0.0       0.0       0.0       0.3
 1 H  s               0.1      15.5       0.0      27.4       0.0      21.4
 1 H  pz              0.0       0.0       0.0       0.0       1.8       0.0
 1 H  px              0.1       1.2       0.0       0.6       0.0       3.9
 1 H  py              0.0       0.0       0.6       0.0       0.0       0.0
 2 H  s               0.1      15.5      20.6       6.9       0.0      21.4
 2 H  pz              0.0       0.0       0.0       0.0       1.8       0.0
 2 H  px              0.0       0.3       0.4       0.2       0.0       1.0
 2 H  py              0.0       0.9       0.1       0.4       0.0       2.9
 3 H  s               0.1      15.5      20.6       6.9       0.0      21.4
 3 H  pz              0.0       0.0       0.0       0.0       1.8       0.0
 3 H  px              0.0       0.3       0.4       0.2       0.0       1.0
 3 H  py              0.0       0.9       0.1       0.4       0.0       2.9

                      6         7         8         9        10        11   
                   0.12657   0.12657   0.20643   0.20643   0.25488   0.27660
                   0.00000   0.00000   0.00000   0.00000   0.00000   0.00000
                  --------  --------  --------  --------  --------  --------
 0 C  s               0.0       0.0       0.0       0.0      68.9       0.0
 0 C  pz              0.0       0.0       0.0       0.0       0.0      99.4
 0 C  px             14.9       0.0      75.3       0.0       0.0       0.0
 0 C  py              0.0      14.9       0.0      75.3       0.0       0.0
 0 C  dz2             0.0       0.0       0.0       0.0      18.0       0.0
 0 C  dx2y2          10.1       0.0      12.5       0.0       0.0       0.0
 0 C  dxy             0.0      10.1       0.0      12.5       0.0       0.0
 0 C  f+1             0.0       0.0       0.2       0.0       0.0       0.0
 0 C  f-1             0.0       0.0       0.0       0.2       0.0       0.0
 0 C  f+3             0.0       0.0       0.0       0.0       0.6       0.0
 1 H  s              43.9       0.0       6.8       0.0       4.1       0.0
 1 H  pz              0.0       0.0       0.0       0.0       0.0       0.2
 1 H  px              4.5       0.0       0.1       0.0       0.1       0.0
 1 H  py              0.0       1.7       0.0       1.2       0.0       0.0
 2 H  s              11.0      32.9       1.7       5.1       4.1       0.0
 2 H  pz              0.0       0.0       0.0       0.0       0.0       0.2
 2 H  px              0.2       2.2       0.8       0.1       0.0       0.0
 2 H  py              2.2       1.6       0.1       0.2       0.1       0.0
 3 H  s              11.0      32.9       1.7       5.1       4.1       0.0
 3 H  pz              0.0       0.0       0.0       0.0       0.0       0.2
 3 H  px              0.2       2.2       0.8       0.1       0.0       0.0
 3 H  py              2.2       1.6       0.1       0.2       0.1       0.0

                     12        13        14        15        16        17   
                   0.46514   0.49143   0.49144   0.65369   0.65372   0.89122
                   0.00000   0.00000   0.00000   0.00000   0.00000   0.00000
                  --------  --------  --------  --------  --------  --------
 0 C  s              25.2       0.0       0.0       0.0       0.0       6.4
 0 C  px              0.0      27.2       0.0       0.0       0.0       0.0
 0 C  py              0.0       0.0      27.2       0.0       0.0       0.0
 0 C  dz2             7.5       0.0       0.0       0.0       0.0      64.9
 0 C  dxz             0.0       0.0       0.0       0.0      86.2       0.0
 0 C  dyz             0.0       0.0       0.0      86.2       0.0       0.0
 0 C  dx2y2           0.0      14.5       0.0       0.0       0.0       0.0
 0 C  dxy             0.0       0.0      14.5       0.0       0.0       0.0
 0 C  f+1             0.0       0.9       0.0       0.0       0.0       0.0
 0 C  f-1             0.0       0.0       0.9       0.0       0.0       0.0
 0 C  f+3             3.8       0.0       0.0       0.0       0.0       4.6
 1 H  s              15.8      29.6       0.0       0.0       0.0       5.0
 1 H  pz              0.0       0.0       0.0       0.0       9.2       0.0
 1 H  px              5.4       7.5       0.0       0.0       0.0       3.0
 1 H  py              0.0       0.0       1.2       0.0       0.0       0.0
 2 H  s              15.8       7.4      22.2       0.0       0.0       5.0
 2 H  pz              0.0       0.0       0.0       6.9       2.3       0.0
 2 H  px              1.3       0.0       2.8       0.0       0.0       0.8
 2 H  py              4.0       2.8       3.1       0.0       0.0       2.3
 3 H  s              15.8       7.4      22.2       0.0       0.0       5.0
 3 H  pz              0.0       0.0       0.0       6.9       2.3       0.0
 3 H  px              1.3       0.0       2.8       0.0       0.0       0.8
 3 H  py              4.0       2.8       3.1       0.0       0.0       2.3

                     18        19        20        21        22        23   
                   0.90038   0.90043   1.35000   1.44441   1.47453   1.54349
                   0.00000   0.00000   0.00000   0.00000   0.00000   0.00000
                  --------  --------  --------  --------  --------  --------
 0 C  s               0.0       0.0      89.3       0.0       0.0       0.0
 0 C  pz              0.0       0.0       0.0      84.8       0.0       0.0
 0 C  px              8.9       0.0       0.0       0.0       0.0      80.5
 0 C  py              0.0       8.9       0.0       0.0       0.0       0.0
 0 C  dz2             0.0       0.0       2.8       0.0       0.0       0.0
 0 C  dx2y2          36.3       0.0       0.0       0.0       0.0       0.2
 0 C  dxy             0.0      36.3       0.0       0.0       0.0       0.0
 0 C  f0              0.0       0.0       0.0       0.2       0.0       0.0
 0 C  f+1             2.4       0.0       0.0       0.0       0.0       3.0
 0 C  f-1             0.0       2.4       0.0       0.0       0.0       0.0
 0 C  f+3             0.0       0.0       6.5       0.0       0.0       0.0
 0 C  f-3             0.0       0.0       0.0       0.0      15.8       0.0
 1 H  s              16.0       0.0       0.4       0.0       0.0       8.7
 1 H  pz              0.0       0.0       0.0       5.0       0.0       0.0
 1 H  px             10.7       0.0       0.0       0.0       0.0       1.5
 1 H  py              0.0       8.2       0.0       0.0      28.1       0.0
 2 H  s               4.0      12.0       0.4       0.0       0.0       2.2
 2 H  pz              0.0       0.0       0.0       5.0       0.0       0.0
 2 H  px              8.8       0.0       0.0       0.0      21.0       0.1
 2 H  py              0.0      10.1       0.0       0.0       7.0       0.7
 3 H  s               4.0      12.0       0.4       0.0       0.0       2.2
 3 H  pz              0.0       0.0       0.0       5.0       0.0       0.0
 3 H  px              8.8       0.0       0.0       0.0      21.0       0.1
 3 H  py              0.0      10.1       0.0       0.0       7.0       0.7

                     24        25        26        27        28        29   
                   1.54353   1.80057   1.84734   1.84735   1.95806   2.03481
                   0.00000   0.00000   0.00000   0.00000   0.00000   0.00000
                  --------  --------  --------  --------  --------  --------
 0 C  s               0.0       0.0       0.0       0.0       3.1       0.0
 0 C  pz              0.0      18.8       0.0       0.0       0.0       0.0
 0 C  py             80.5       0.0       0.0       0.0       0.0       9.3
 0 C  dz2             0.0       0.0       0.0       0.0       4.7       0.0
 0 C  dxz             0.0       0.0       0.0      11.5       0.0       0.0
 0 C  dyz             0.0       0.0      11.5       0.0       0.0       0.0
 0 C  dxy             0.2       0.0       0.0       0.0       0.0       2.6
 0 C  f0              0.0      16.2       0.0       0.0       0.0       0.0
 0 C  f-1             3.0       0.0       0.0       0.0       0.0      17.3
 0 C  f+2             0.0       0.0       0.0      20.4       0.0       0.0
 0 C  f-2             0.0       0.0      20.4       0.0       0.0       0.0
 0 C  f+3             0.0       0.0       0.0       0.0      24.2       0.0
 1 H  s               0.0       0.0       0.0       0.0      21.3       0.0
 1 H  pz              0.0      21.7       0.0      45.3       0.0       0.0
 1 H  px              0.0       0.0       0.0       0.0       1.4       0.0
 1 H  py              0.6       0.0       0.0       0.0       0.0      20.9
 2 H  s               6.6       0.0       0.0       0.0      21.2      19.6
 2 H  pz              0.0      21.7      34.0      11.3       0.0       0.0
 2 H  px              0.7       0.0       0.0       0.0       0.4       4.8
 2 H  py              0.5       0.0       0.0       0.0       1.1       0.6
 3 H  s               6.6       0.0       0.0       0.0      21.2      19.6
 3 H  pz              0.0      21.7      34.0      11.3       0.0       0.0
 3 H  px              0.7       0.0       0.0       0.0       0.4       4.8
 3 H  py              0.5       0.0       0.0       0.0       1.1       0.6

                     30        31        32        33        34        35   
                   2.03482   2.37059   2.37063   2.56471   2.56474   2.59394
                   0.00000   0.00000   0.00000   0.00000   0.00000   0.00000
                  --------  --------  --------  --------  --------  --------
 0 C  s               0.0       0.0       0.0       0.0       0.0      16.8
 0 C  px              9.3       0.0       0.9       8.2       0.0       0.0
 0 C  py              0.0       0.9       0.0       0.0       8.2       0.0
 0 C  dz2             0.0       0.0       0.0       0.0       0.0      35.2
 0 C  dx2y2           2.6       0.0      31.0      21.7       0.0       0.0
 0 C  dxy             0.0      31.0       0.0       0.0      21.7       0.0
 0 C  f+1            17.3       0.0      15.2       0.4       0.0       0.0
 0 C  f-1             0.0      15.2       0.0       0.0       0.4       0.0
 1 H  s              26.1       0.0       5.2      16.8       0.0       4.8
 1 H  px              0.2       0.0       3.6      24.0       0.0      11.1
 1 H  py              0.0      26.5       0.0       0.0       5.6       0.0
 2 H  s               6.5       3.9       1.3       4.2      12.6       4.8
 2 H  px             10.9       2.0      18.8       0.3       9.9       2.8
 2 H  py              4.8       7.3       2.0       9.9       9.5       8.4
 3 H  s               6.5       3.9       1.3       4.2      12.6       4.8
 3 H  px             10.9       2.0      18.8       0.3       9.9       2.8
 3 H  py              4.8       7.3       2.0       9.9       9.5       8.4

                     36        37        38        39        40        41   
                   2.99486   2.99492   3.18872   3.18879   3.19710   3.23157
                   0.00000   0.00000   0.00000   0.00000   0.00000   0.00000
                  --------  --------  --------  --------  --------  --------
 0 C  pz              0.0       0.0       0.0       0.0       2.3       0.0
 0 C  py              0.0       0.0       0.0       0.0       0.0       3.5
 0 C  dxz             0.0      96.1       6.1       0.0       0.0       0.0
 0 C  dyz            96.1       0.0       0.0       6.2       0.0       0.0
 0 C  dxy             0.0       0.0       0.0       0.0       0.0      36.0
 0 C  f0              0.0       0.0       0.0       0.0      83.6       0.0
 0 C  f-1             0.0       0.0       0.0       0.0       0.0      45.2
 0 C  f+2             0.0       3.9      75.7       0.0       0.0       0.0
 0 C  f-2             3.9       0.0       0.0      75.6       0.0       0.0
 1 H  pz              0.0       0.0      12.2       0.0       4.6       0.0
 2 H  s               0.0       0.0       0.0       0.0       0.0       3.9
 2 H  pz              0.0       0.0       3.0       9.1       4.8       0.0
 2 H  px              0.0       0.0       0.0       0.0       0.0       0.8
 2 H  py              0.0       0.0       0.0       0.0       0.0       2.9
 3 H  s               0.0       0.0       0.0       0.0       0.0       3.9
 3 H  pz              0.0       0.0       3.0       9.1       4.8       0.0
 3 H  px              0.0       0.0       0.0       0.0       0.0       0.8
 3 H  py              0.0       0.0       0.0       0.0       0.0       2.9

                     42        43        44        45        46        47   
                   3.23159   3.47841   3.62979   4.08577   4.08579   4.50050
                   0.00000   0.00000   0.00000   0.00000   0.00000   0.00000
                  --------  --------  --------  --------  --------  --------
 0 C  s               0.0       6.7       0.0       0.0       0.0      16.2
 0 C  px              3.5       0.0       0.0      16.3       0.0       0.0
 0 C  py              0.0       0.0       0.0       0.0      16.3       0.0
 0 C  dz2             0.0      48.2       0.0       0.0       0.0      14.1
 0 C  dx2y2          36.0       0.0       0.0      33.3       0.0       0.0
 0 C  dxy             0.0       0.0       0.0       0.0      33.3       0.0
 0 C  f+1            45.1       0.0       0.0      15.2       0.0       0.0
 0 C  f-1             0.0       0.0       0.0       0.0      15.2       0.0
 0 C  f+3             0.0      20.9       0.0       0.0       0.0      38.8
 0 C  f-3             0.0       0.0      84.2       0.0       0.0       0.0
 1 H  s               5.2       2.3       0.0      14.2       0.0       9.2
 1 H  px              5.0       5.7       0.0       9.0       0.0       1.1
 1 H  py              0.0       0.0       5.3       0.0       0.2       0.0
 2 H  s               1.3       2.3       0.0       3.5      10.7       9.2
 2 H  px              0.4       1.4       4.0       1.2       1.2       0.3
 2 H  py              0.8       4.3       1.3       1.2       5.6       0.9
 3 H  s               1.3       2.3       0.0       3.5      10.7       9.2
 3 H  px              0.4       1.4       4.0       1.2       1.2       0.3
 3 H  py              0.8       4.3       1.3       1.2       5.6       0.9

                     48   
                  21.92380
                   0.00000
                  --------
 0 C  s              98.9
 0 C  dz2             0.1
 1 H  s               0.2
 1 H  px              0.1
 2 H  s               0.2
 3 H  s               0.2


                      *****************************
                      * MAYER POPULATION ANALYSIS *
                      *****************************

  NA   - Mulliken gross atomic population
  ZA   - Total nuclear charge
  QA   - Mulliken gross atomic charge
  VA   - Mayer's total valence
  BVA  - Mayer's bonded valence
  FA   - Mayer's free valence

  ATOM       NA         ZA         QA         VA         BVA        FA
  0 C      6.3744     6.0000    -0.3744     3.8836     2.9102     0.9734
  1 H      0.8752     1.0000     0.1248     0.9746     0.9728     0.0018
  2 H      0.8752     1.0000     0.1248     0.9746     0.9728     0.0018
  3 H      0.8752     1.0000     0.1248     0.9746     0.9728     0.0018

  Mayer bond orders larger than 0.100000
B(  0-C ,  1-H ) :   0.9701 B(  0-C ,  2-H ) :   0.9701 B(  0-C ,  3-H ) :   0.9701 


-------
TIMINGS
-------

Total SCF time: 0 days 0 hours 0 min 1 sec 

Total time                  ....       1.503 sec
Sum of individual times     ....       1.367 sec  ( 91.0%)

SCF preparation             ....       0.247 sec  ( 16.4%)
Fock matrix formation       ....       0.925 sec  ( 61.6%)
  Startup                   ....       0.012 sec  (  1.3% of F)
  Split-RI-J                ....       0.052 sec  (  5.7% of F)
  Chain of spheres X        ....       0.602 sec  ( 65.0% of F)
  XC integration            ....       0.252 sec  ( 27.2% of F)
    Basis function eval.    ....       0.049 sec  ( 19.5% of XC)
    Density eval.           ....       0.031 sec  ( 12.4% of XC)
    XC-Functional eval.     ....       0.026 sec  ( 10.3% of XC)
    XC-Potential eval.      ....       0.075 sec  ( 29.9% of XC)
[...]

------------------------------------------------------------------------------
                              ORCA PROPERTY CALCULATIONS
------------------------------------------------------------------------------

GBWName                                 ... orca.gbw
Number of atoms                         ...      4
Number of basis functions               ...     49
Max core memory                         ...   4096 MB

Electric properties:
Dipole moment                           ... YES
Quadrupole moment                       ...  NO
Static polarizability (Dipole/Dipole)   ...  NO
Static polarizability (Dipole/Quad.)    ...  NO
Static polarizability (Quad./Quad.)     ...  NO
Static polarizability (Velocity)        ...  NO
Static hyperpolarizability              ...  NO

Atomic electric properties:
Dipole moment                           ...  NO
Quadrupole moment                       ...  NO
Static polarizability                   ...  NO

Choice of electric origin               ... Center of mass
Position of electric origin             ...     0.000009    -0.000000    -0.000001

General magnetic properties:
Magnetizability                         ...  NO

EPR properties:
g-Tensor (aka g-matrix)                 ...  NO
Zero-Field splitting spin-orbit         ...  NO
Zero-field splitting spin-spin          ...  NO
Hyperfine couplings                     ...  NO (   0 nuclei)
Quadrupole couplings                    ...  NO (   0 nuclei)
Contact density                         ...  NO (   0 nuclei)

NMR properties:
Chemical shifts                         ...  NO (   0 nuclei)
Spin-rotation constants                 ...  NO (   0 nuclei)
Spin-spin couplings                     ...  NO (   0 nuclei,    0 pairs)

Choice of magnetic origin               ... GIAO
Position of magnetic origin             ...     0.000000     0.000000     0.000000

Properties with geometric perturbations:
SCF Hessian                             ... YES
IR spectrum                             ... YES
VCD spectrum                            ...  NO
X-ray spectroscopy properties:
SCF XES/XAS/RIXS spectra                ...  NO

SCF SOC stabilization energy            ...  NO
Diagonal Born-Oppenheimer correction    ...  NO

-------------
DIPOLE MOMENT
-------------

Method             : SCF
Type of density    : Electron Density
Multiplicity       :   2
Irrep              :   0
Energy             :   -39.8265911713195919 Eh
Basis              : AO
                                X                 Y                 Z
Electronic contribution:     -0.000002388      -0.000000010      -0.000000675
Nuclear contribution   :     -0.000020168       0.000000088       0.000001124
                        -----------------------------------------
Total Dipole Moment    :     -0.000022556       0.000000078       0.000000449
                        -----------------------------------------
Magnitude (a.u.)       :      0.000022561
Magnitude (Debye)      :      0.000057345



--------------------
Rotational spectrum 
--------------------
 
Rotational constants in cm-1:             9.572915             9.572863             4.786444 
Rotational constants in MHz :        286988.760305        286987.211722        143493.993006 

Dipole components along the rotational axes: 
x,y,z [a.u.] :    -0.000022     0.000002     0.000000 
x,y,z [Debye]:    -0.000057     0.000005     0.000001 

 

Dipole moment calculation done in   0.0 sec 

-----------
SCF HESSIAN
-----------

Occupied/Occupied contributions to the Hessian:
   => Occupied/Occupied contributions              ... done (  0.0 sec)
Perturbed density contributions to the Hessian:
   => Perturbed density contributions              ... done (  0.0 sec)
Explicit contributions to the Hessian:
   => Nuclear repulsion Hessian                    ... done (  0.0 sec)
   => HCore and overlap Hessian                    ... done (  0.0 sec)
   => RI-J Hessian                                 ... done (  0.1 sec)
   => COSX Hessian                                 ... done (  2.9 sec)
   => XC-Hessian                                   ... done (  0.4 sec)
   => Explicit contributions done
Dipole derivatives                                 ... done (  0.0 sec)
Mass weighting the Hessian           ... done
Calculating normal modes             ... done
Scaling frequencies                  ... done

-----------------------
VIBRATIONAL FREQUENCIES
-----------------------

Scaling factor for frequencies =  1.000000000  (already applied!)

     0:       0.00 cm**-1
     1:       0.00 cm**-1
     2:       0.00 cm**-1
     3:       0.00 cm**-1
     4:       0.00 cm**-1
     5:       0.00 cm**-1
     6:     536.38 cm**-1
     7:    1408.69 cm**-1
     8:    1408.73 cm**-1
     9:    3110.72 cm**-1
    10:    3285.88 cm**-1
    11:    3286.06 cm**-1


------------
NORMAL MODES
------------

These modes are the Cartesian displacements weighted by the diagonal matrix
M(i,i)=1/sqrt(m[i]) where m[i] is the mass of the displaced atom
Thus, these vectors are normalized but *not* orthogonal

                  0          1          2          3          4          5    
      0       0.000000   0.000000   0.000000   0.000000   0.000000   0.000000
      1       0.000000   0.000000   0.000000   0.000000   0.000000   0.000000
      2       0.000000   0.000000   0.000000   0.000000   0.000000   0.000000
      3       0.000000   0.000000   0.000000   0.000000   0.000000   0.000000
      4       0.000000   0.000000   0.000000   0.000000   0.000000   0.000000
      5       0.000000   0.000000   0.000000   0.000000   0.000000   0.000000
      6       0.000000   0.000000   0.000000   0.000000   0.000000   0.000000
      7       0.000000   0.000000   0.000000   0.000000   0.000000   0.000000
      8       0.000000   0.000000   0.000000   0.000000   0.000000   0.000000
      9       0.000000   0.000000   0.000000   0.000000   0.000000   0.000000
     10       0.000000   0.000000   0.000000   0.000000   0.000000   0.000000
     11       0.000000   0.000000   0.000000   0.000000   0.000000   0.000000
                  6          7          8          9         10         11    
      0       0.000000  -0.000865  -0.092613   0.000024   0.100124  -0.000177
      1      -0.000000   0.092612  -0.000865  -0.000000   0.000177   0.100125
      2       0.143847  -0.000000   0.000000  -0.000000   0.000000   0.000000
      3       0.000000  -0.000690  -0.073862   0.577187  -0.812348   0.001435
      4      -0.000000  -0.809589   0.007564   0.000000   0.000030   0.016846
      5      -0.571355   0.000000  -0.000000   0.000000  -0.000000  -0.000000
      6      -0.000000   0.388057   0.585131  -0.288737  -0.190979  -0.358665
      7       0.000000  -0.150548  -0.381205  -0.500056  -0.359954  -0.604317
      8      -0.571341   0.000000  -0.000001   0.000000   0.000000   0.000000
      9      -0.000001  -0.377057   0.592280  -0.288739  -0.189712   0.359335
     10      -0.000000  -0.143399   0.383951   0.500060   0.357819  -0.605581
     11      -0.571341  -0.000000  -0.000001   0.000000   0.000000  -0.000000


-----------
IR SPECTRUM
-----------

 Mode   freq       eps      Int      T**2         TX        TY        TZ
       cm**-1   L/(mol*cm) km/mol    a.u.
----------------------------------------------------------------------------
  6:    536.38   0.016662   84.21  0.009694  (-0.000000 -0.000000 -0.098459)
  7:   1408.69   0.000555    2.80  0.000123  ( 0.000103 -0.011085  0.000000)
  8:   1408.73   0.000552    2.79  0.000122  ( 0.011058  0.000104 -0.000000)
  9:   3110.72   0.000000    0.00  0.000000  ( 0.000023 -0.000000  0.000000)
 10:   3285.88   0.000860    4.35  0.000082  ( 0.009038  0.000016 -0.000000)
 11:   3286.06   0.000857    4.33  0.000081  (-0.000016  0.009023 -0.000000)

* The epsilon (eps) is given for a Dirac delta lineshape.
** The dipole moment derivative (T) already includes vibrational overlap.

The first frequency considered to be a vibration is 6
The total number of vibrations considered is 6


--------------------------
THERMOCHEMISTRY AT 298.15K
--------------------------

Temperature         ...   298.15 K
Pressure            ...     1.00 atm
Total Mass          ...    15.03 AMU
Quasi RRHO          ...     True
Cut-Off Frequency   ...     1.00 cm^-1

Throughout the following assumptions are being made:
  (1) The electronic state is orbitally nondegenerate
      but the spin degeneracy is treated
  (2) There are no thermally accessible electronically excited states
  (3) Hindered rotations indicated by low frequency modes are not
      treated as such but are treated as vibrations and this may
      cause some error
  (4) All equations used are the standard statistical mechanics
      equations for an ideal gas
  (5) All vibrations are strictly harmonic

freq.     536.38  E(vib)   ...       0.12 
freq.    1408.69  E(vib)   ...       0.00 
freq.    1408.73  E(vib)   ...       0.00 
freq.    3110.72  E(vib)   ...       0.00 
freq.    3285.88  E(vib)   ...       0.00 
freq.    3286.06  E(vib)   ...       0.00 

------------
INNER ENERGY
------------

The inner energy is: U= E(el) + E(ZPE) + E(vib) + E(rot) + E(trans)
    E(el)   - is the total energy from the electronic structure calculation
              = E(kin-el) + E(nuc-el) + E(el-el) + E(nuc-nuc)
    E(ZPE)  - the the zero temperature vibrational energy from the frequency calculation
    E(vib)  - the the finite temperature correction to E(ZPE) due to population
              of excited vibrational states
    E(rot)  - is the rotational thermal energy
    E(trans)- is the translational thermal energy

Summary of contributions to the inner energy U:
Electronic energy                ...    -39.82659117 Eh
Zero point energy                ...      0.02969924 Eh      18.64 kcal/mol
Thermal vibrational correction   ...      0.00021292 Eh       0.13 kcal/mol
Thermal rotational correction    ...      0.00141627 Eh       0.89 kcal/mol
Thermal translational correction ...      0.00141627 Eh       0.89 kcal/mol
-----------------------------------------------------------------------
Total thermal energy                    -39.79384646 Eh


Summary of corrections to the electronic energy:
(perhaps to be used in another calculation)
Total thermal correction                  0.00304547 Eh       1.91 kcal/mol
Non-thermal (ZPE) correction              0.02969924 Eh      18.64 kcal/mol
-----------------------------------------------------------------------
Total correction                          0.03274471 Eh      20.55 kcal/mol


--------
ENTHALPY
--------

The enthalpy is H = U + kB*T
                kB is Boltzmann's constant
Total thermal energy              ...    -39.79384646 Eh 
Thermal Enthalpy correction       ...      0.00094421 Eh       0.59 kcal/mol
-----------------------------------------------------------------------
Total Enthalpy                    ...    -39.79290225 Eh


Note: Rotational entropy computed according to Herzberg 
Infrared and Raman Spectra, Chapter V,1, Van Nostrand Reinhold, 1945 
Point Group:  D3h, Symmetry Number:   6  
Rotational constants in cm-1:     9.572923     9.572871     4.786449 

Vibrational entropy computed according to the QRRHO of S. Grimme
Chem.Eur.J. 2012 18 9955 using a reference frequency of 100.0 cm-1


-------
ENTROPY
-------

The entropy contributions are T*S = T*(S(el)+S(vib)+S(rot)+S(trans))
     S(el)   - electronic entropy
     S(vib)  - vibrational entropy
     S(rot)  - rotational entropy
     S(trans)- translational entropy
The entropies will be listed as multiplied by the temperature to get
units of energy

Electronic entropy                ...      0.00065446 Eh      0.41 kcal/mol
Vibrational entropy               ...      0.00028913 Eh      0.18 kcal/mol
Rotational entropy                ...      0.00494703 Eh      3.10 kcal/mol
Translational entropy             ...      0.01618771 Eh     10.16 kcal/mol
-----------------------------------------------------------------------
Final entropy term                ...      0.02207832 Eh     13.85 kcal/mol

In case the symmetry of your molecule has not been determined correctly
or in case you have a reason to use a different symmetry number we print 
out the resulting rotational entropy values for sn=1,12:

 non-linear molecules -----------------------------------
|  sn= 1 | S(rot)=       0.00663877 Eh      4.17 kcal/mol|
|  sn= 2 | S(rot)=       0.00598432 Eh      3.76 kcal/mol|
|  sn= 3 | S(rot)=       0.00560148 Eh      3.51 kcal/mol|
|  sn= 4 | S(rot)=       0.00532986 Eh      3.34 kcal/mol|
|  sn= 5 | S(rot)=       0.00511917 Eh      3.21 kcal/mol|
|  sn= 6 | S(rot)=       0.00494703 Eh      3.10 kcal/mol|
|  sn= 7 | S(rot)=       0.00480148 Eh      3.01 kcal/mol|
|  sn= 8 | S(rot)=       0.00467540 Eh      2.93 kcal/mol|
|  sn= 9 | S(rot)=       0.00456419 Eh      2.86 kcal/mol|
|  sn=10 | S(rot)=       0.00446472 Eh      2.80 kcal/mol|
|  sn=11 | S(rot)=       0.00437473 Eh      2.75 kcal/mol|
|  sn=12 | S(rot)=       0.00429257 Eh      2.69 kcal/mol|
 linear molecules ---------------------------------------
|  Dinfh | S(rot)=       0.00384742 Eh      2.41 kcal/mol|
|  Cinfv | S(rot)=       0.00450187 Eh      2.82 kcal/mol|
 --------------------------------------------------------


-------------------
GIBBS FREE ENERGY
-------------------

The Gibbs free energy is G = H - T*S

Total enthalpy                    ...    -39.79290225 Eh 
Total entropy correction          ...     -0.02207832 Eh    -13.85 kcal/mol
-----------------------------------------------------------------------
Final Gibbs free energy         ...    -39.81498058 Eh

For completeness - the Gibbs free energy minus the electronic energy
G-E(el)                           ...      0.01161059 Eh      7.29 kcal/mol


Maximum memory used throughout the entire PROP-calculation: 12.4 MB

--------------------------------
SUGGESTED CITATIONS FOR THIS RUN
--------------------------------

Below you find a list of papers that are relevant to this ORCA run
We neither can nor want to force you to cite these papers, but we appreciate if you do
You receive ORCA, which is the product of decades of hard work by many enthusiastic individuals, for free
The only thing we kindly ask in return is that you cite our papers,
We deeply appreciate it, if you show your appreciation for ORCA by not just citing the generic ORCA reference.

Please note that relegating all ORCA citations to the supporting information does *not* help us.
SI sections are not indexed - citations you put there will not count into any citation statistics
But we need these citations in order to attract the funding resources that allow us to do what we are doing

Therefore, if you are a happy ORCA user, please consider citing a few of the papers listed below in the main body of your paper

In addition to the list printed below, the program has created the file orca.bibtex that contains the list in bibtex format
You can import this file easily into all common literature databanks and citation aid programs

It goes without saying that in many instances, there are alternative algorithms to achieve similar
results as the ones you have gotten from ORCA. It is, of course, also the case that in some instances
ORCA just re-implements algorithms worked out by others. We are fully aware of that and we are also
fully appreciative of our colleagues work. Hence this citation list should not be read as indicating
that the listed papers, which are focused on our own work, are the only ones worth citing. It simply
meant to make it easier for users to cite ORCA specific papers. It is not a substitute for doing your
own literature research and citing the relevant literature in a scientifically appropriate manner.

List of essential papers. We consider these as the minimum necessary citations

  1. Neese, F.
     Software update: the ORCA program system, version 6.0
     WIRES Comput. Molec. Sci. 2025 15(1), e70019
     doi.org/10.1002/wcms.70019

List of papers to cite with high priority. The work reported in these papers was absolutely
necessary for this run to complete.
Our perspective: the developers of density functionals and basis sets usually get cited in chemistry papers
Good! But without the algorithms to do something with them, the functionals or basis sets would not do anything.
Hence, in our opinion, the algorithm design and method developments papers are equally worthy of getting cited

  1. Neese, F.
     An improvement of the resolution of the identity approximation for the formation of the Coulomb matrix
     J. Comp. Chem. 2003 24(14), 1740-1747
     doi.org/10.1002/jcc.10318
  2. Neese, F.; Wennmohs, F.; Hansen, A.; Becker, U.
     Efficient, approximate and parallel Hartree-Fock and hybrid DFT calculations. A 'chain-of-spheres' algorithm for the Hartree-Fock exchange
     Chem. Phys. 2009 356(1-3), 98-109
     doi.org/10.1016/j.chemphys.2008.10.036
  3. Bykov, D.; Petrenko, T.; Izsak, R.; Kossmann, S.; Becker, U.; Valeev, E.; Neese, F.
     Efficient implementation of the analytic second derivatives of Hartree-Fock and hybrid DFT energies: a detailed analysis of different approximations
     Molec. Phys. 2015 113 , 1961-1977
     doi.org/10.1080/00268976.2015.1025114
  4. Helmich-Paris, B.; de Souza, B.; Neese, F.; Izsák, R.
     An improved chain of spheres for exchange algorithm
     J. Chem. Phys. 2021 155(10), 104109
     doi.org/10.1063/5.0058766
  5. Neese, F.
     The SHARK Integral Generation and Digestion System
     J. Comp. Chem. 2022 44(3), 381
     doi.org/10.1002/jcc.26942

List of suggested additional citations. These are papers that are important in the 'surrounding' of 
of this run, or papers that preceded the highly important papers. If you like your results we are grateful for a citation.

  1. Izsak, R.; Neese, F.
     An overlap fitted chain of spheres exchange method
     J. Chem. Phys. 2011 135 , 144105
     doi.org/10.1063/1.3646921
  2. Izsak, R.; Hansen, A.; Neese, F.
     The resolution of identity and chain of spheres approximations for the LPNO-CCSD singles Fock term
     Molec. Phys. 2012 110 , 2413-2417
     doi.org/10.1080/00268976.2012.687466
  3. Neese, F.
     The ORCA program system
     WIRES Comput. Molec. Sci. 2012 2(1), 73-78
     doi.org/10.1002/wcms.81
  4. Izsak, R.; Neese, F.; Klopper, W.
     Robust fitting techniques in the chain of spheres approximation to the Fock exchange: The role of the complementary space
     J. Chem. Phys. 2013 139 , 
     doi.org/10.1063/1.4819264
  5. Neese, F.
     Software update: the ORCA program system, version 4.0
     WIRES Comput. Molec. Sci. 2018 8(1), 1-6
     doi.org/10.1002/wcms.1327
  6. Neese, F.; Wennmohs, F.; Becker, U.; Riplinger, C.
     The ORCA quantum chemistry program package
     J. Chem. Phys. 2020 152(22), 224108
     doi.org/10.1063/5.0004608
  7. Neese, F.
     Software update: The ORCA program system—Version 5.0
     WIRES Comput. Molec. Sci. 2022 12(1), e1606
     doi.org/10.1002/wcms.1606

List of optional additional citations

  1. Neese, F.
     Approximate second-order SCF convergence for spin unrestricted wavefunctions
     Chem. Phys. Lett. 2000 325(1-3), 93-98
     doi.org/10.1016/s0009-2614(00)00662-x

Timings for individual modules:

Sum of individual times          ...       12.905 sec (=   0.215 min)
Startup calculation              ...        1.070 sec (=   0.018 min)   8.3 %
SCF iterations                   ...        3.725 sec (=   0.062 min)  28.9 %
Property integrals               ...        1.983 sec (=   0.033 min)  15.4 %
SCF Response                     ...        1.169 sec (=   0.019 min)   9.1 %
Property calculations            ...        3.966 sec (=   0.066 min)  30.7 %
SCF Gradient evaluation          ...        0.987 sec (=   0.016 min)   7.6 %
Geometry relaxation              ...        0.005 sec (=   0.000 min)   0.0 %
                             ****ORCA TERMINATED NORMALLY****
TOTAL RUN TIME: 0 days 0 hours 0 minutes 13 seconds 890 msec
