   2   2   1   0
  0.1173411E+02  0.2863036E-09  0.2863036E-09  0.2863036E-09  0.5000000E-15
  1.000000000000000E-004
  CAR 
 unknown system                          
     27.55507927     -3.97709923  301      5.98840242      1.00000000
     -3.977  0.0000E+00  0.0000E+00  0.0000E+00  0.0000E+00
     -3.872  0.0000E+00  0.0000E+00  0.0000E+00  0.0000E+00
     -3.767  0.0000E+00  0.0000E+00  0.0000E+00  0.0000E+00
     -3.662  0.0000E+00  0.0000E+00  0.0000E+00  0.0000E+00
     -3.557  0.0000E+00  0.0000E+00  0.0000E+00  0.0000E+00
     -3.452  0.0000E+00  0.0000E+00  0.0000E+00  0.0000E+00
     -3.346  0.0000E+00  0.0000E+00  0.0000E+00  0.0000E+00
     -3.241  0.0000E+00  0.0000E+00  0.0000E+00  0.0000E+00
     -3.136  0.0000E+00  0.0000E+00  0.0000E+00  0.0000E+00
     -3.031  0.0000E+00  0.0000E+00  0.0000E+00  0.0000E+00
     -2.926  0.0000E+00  0.0000E+00  0.0000E+00  0.0000E+00
     -2.821  0.1002E-17  0.0000E+00  0.1054E-18  0.0000E+00
     -2.716  0.2524E-09  0.0000E+00  0.2653E-10  0.0000E+00
     -2.611  0.1289E-04  0.1296E-10  0.1354E-05  0.1363E-11
     -2.506  0.3660E-03  0.3152E-05  0.3982E-04  0.3313E-06
     -2.400  0.6158E-04  0.3050E-03  0.4630E-04  0.3239E-04
     -2.295  0.1109E-07  0.1322E-03  0.4630E-04  0.4629E-04
     -2.190  0.8765E-12  0.1039E-06  0.4630E-04  0.4630E-04
     -2.085  0.1805E-05  0.3149E-13  0.4649E-04  0.4630E-04
     -1.980  0.1080E-02  0.1401E-06  0.1600E-03  0.4631E-04
     -1.875  0.1553E-02  0.4838E-03  0.3232E-03  0.9717E-04
     -1.770  0.8021E-05  0.2108E-02  0.3241E-03  0.3187E-03
     -1.665  0.1449E-10  0.5089E-04  0.3241E-03  0.3241E-03
     -1.560  0.9091E-06  0.6079E-09  0.3242E-03  0.3241E-03
     -1.455  0.1437E-02  0.1419E-07  0.4752E-03  0.3241E-03
     -1.349  0.3800E-02  0.3034E-03  0.8746E-03  0.3560E-03
     -1.244  0.4751E-04  0.4552E-02  0.8796E-03  0.8344E-03
     -1.139  0.2473E-09  0.4300E-03  0.8796E-03  0.8796E-03
     -1.034  0.1010E-05  0.3301E-07  0.8797E-03  0.8796E-03
     -0.929  0.1122E-02  0.4069E-08  0.9977E-03  0.8796E-03
     -0.824  0.2379E-02  0.1407E-03  0.1248E-02  0.8944E-03
     -0.719  0.2177E-04  0.2992E-02  0.1250E-02  0.1209E-02
     -0.614  0.4108E-09  0.3909E-03  0.1250E-02  0.1250E-02
     -0.509  0.3837E-04  0.4821E-07  0.1254E-02  0.1250E-02
     -0.403  0.2037E-02  0.2101E-07  0.1468E-02  0.1250E-02
     -0.298  0.5674E-03  0.2369E-03  0.1528E-02  0.1275E-02
     -0.193  0.2792E-06  0.2270E-02  0.1528E-02  0.1513E-02
     -0.088  0.8110E-03  0.1362E-03  0.1613E-02  0.1528E-02
      0.017  0.9114E-02  0.7337E-08  0.2571E-02  0.1528E-02
      0.122  0.6461E-03  0.1782E-03  0.2639E-02  0.1547E-02
      0.227  0.4863E-07  0.8302E-02  0.2639E-02  0.2419E-02
      0.332  0.4708E-03  0.2091E-02  0.2688E-02  0.2639E-02
      0.437  0.9027E-02  0.6990E-06  0.3637E-02  0.2639E-02
      0.543  0.1074E-02  0.6429E-05  0.3750E-02  0.2640E-02
      0.648  0.5319E-03  0.4186E-02  0.3806E-02  0.3080E-02
      0.753  0.4516E-02  0.6343E-02  0.4281E-02  0.3746E-02
      0.858  0.2384E-03  0.3548E-04  0.4306E-02  0.3750E-02
      0.963  0.6227E-03  0.6970E-10  0.4371E-02  0.3750E-02
      1.068  0.2706E-02  0.2596E-09  0.4655E-02  0.3750E-02
      1.173  0.1384E-01  0.4867E-04  0.6110E-02  0.3755E-02
      1.278  0.1095E-01  0.3815E-02  0.7261E-02  0.4156E-02
      1.383  0.1598E-01  0.1421E-02  0.8940E-02  0.4305E-02
      1.488  0.1175E-01  0.8785E-06  0.1017E-01  0.4306E-02
      1.594  0.3053E-01  0.4909E-06  0.1338E-01  0.4306E-02
      1.699  0.1197E-01  0.1850E-02  0.1464E-01  0.4500E-02
      1.804  0.1659E-01  0.9715E-02  0.1639E-01  0.5521E-02
      1.909  0.1049E-01  0.1644E-02  0.1749E-01  0.5694E-02
      2.014  0.3594E-02  0.1860E-02  0.1787E-01  0.5889E-02
      2.119  0.8756E-02  0.8542E-02  0.1879E-01  0.6787E-02
      2.224  0.3163E-01  0.6305E-02  0.2211E-01  0.7450E-02
      2.329  0.1458E-01  0.9435E-02  0.2364E-01  0.8442E-02
      2.434  0.7096E-03  0.8080E-02  0.2372E-01  0.9291E-02
      2.540  0.1022E-01  0.3725E-03  0.2479E-01  0.9330E-02
      2.645  0.2472E-01  0.1523E-01  0.2739E-01  0.1093E-01
      2.750  0.3722E-01  0.1101E-01  0.3130E-01  0.1209E-01
      2.855  0.2446E-01  0.3567E-02  0.3387E-01  0.1246E-01
      2.960  0.1865E-01  0.6104E-02  0.3583E-01  0.1310E-01
      3.065  0.2218E-01  0.5117E-02  0.3816E-01  0.1364E-01
      3.170  0.2199E-01  0.5048E-02  0.4048E-01  0.1417E-01
      3.275  0.2786E-01  0.1964E-01  0.4340E-01  0.1624E-01
      3.380  0.2246E-01  0.1277E-01  0.4577E-01  0.1758E-01
      3.486  0.3783E-01  0.1687E-01  0.4974E-01  0.1935E-01
      3.591  0.1164E-01  0.1356E-01  0.5096E-01  0.2078E-01
      3.696  0.1394E-01  0.2247E-02  0.5243E-01  0.2101E-01
      3.801  0.2121E-01  0.1365E-02  0.5466E-01  0.2116E-01
      3.906  0.3722E-02  0.3641E-02  0.5505E-01  0.2154E-01
      4.011  0.1134E-01  0.2507E-01  0.5624E-01  0.2417E-01
      4.116  0.1824E-01  0.2136E-01  0.5816E-01  0.2642E-01
      4.221  0.8220E-02  0.1172E-01  0.5902E-01  0.2765E-01
      4.326  0.6467E-02  0.2687E-01  0.5970E-01  0.3048E-01
      4.431  0.4935E-02  0.2771E-01  0.6022E-01  0.3339E-01
      4.537  0.1955E-01  0.2882E-01  0.6228E-01  0.3642E-01
      4.642  0.3428E-01  0.1590E-01  0.6588E-01  0.3809E-01
      4.747  0.1513E-01  0.1920E-01  0.6747E-01  0.4011E-01
      4.852  0.3466E-01  0.2577E-01  0.7111E-01  0.4282E-01
      4.957  0.6388E-01  0.2191E-01  0.7783E-01  0.4512E-01
      5.062  0.5783E-01  0.3397E-01  0.8391E-01  0.4869E-01
      5.167  0.3802E-01  0.2497E-01  0.8790E-01  0.5131E-01
      5.272  0.2021E-01  0.1955E-01  0.9003E-01  0.5337E-01
      5.377  0.1702E-01  0.5879E-02  0.9182E-01  0.5399E-01
      5.483  0.2254E-01  0.1649E-01  0.9419E-01  0.5572E-01
      5.588  0.1890E-01  0.8906E-02  0.9617E-01  0.5666E-01
      5.693  0.1031E-01  0.4332E-02  0.9726E-01  0.5711E-01
      5.798  0.2313E-01  0.3155E-02  0.9969E-01  0.5744E-01
      5.903  0.5925E-02  0.1574E-01  0.1003E+00  0.5910E-01
      6.008  0.7396E-02  0.6634E-03  0.1011E+00  0.5917E-01
      6.113  0.7712E-02  0.3575E-02  0.1019E+00  0.5954E-01
      6.218  0.1561E-01  0.4343E-02  0.1035E+00  0.6000E-01
      6.323  0.6774E-02  0.1767E-02  0.1043E+00  0.6019E-01
      6.429  0.1351E-01  0.1481E-02  0.1057E+00  0.6034E-01
      6.534  0.4993E-02  0.1625E-01  0.1062E+00  0.6205E-01
      6.639  0.1782E-01  0.1390E-01  0.1081E+00  0.6351E-01
      6.744  0.1204E-02  0.1179E-01  0.1082E+00  0.6475E-01
      6.849  0.8712E-07  0.3144E-01  0.1082E+00  0.6805E-01
      6.954  0.8674E-04  0.5431E-02  0.1082E+00  0.6862E-01
      7.059  0.7490E-02  0.1519E-01  0.1090E+00  0.7022E-01
      7.164  0.2992E-02  0.2386E-01  0.1093E+00  0.7273E-01
      7.269  0.2067E-05  0.2051E-01  0.1093E+00  0.7488E-01
      7.374  0.3741E-12  0.2866E-01  0.1093E+00  0.7790E-01
      7.480  0.0000E+00  0.2882E-01  0.1093E+00  0.8093E-01
      7.585  0.0000E+00  0.2385E-01  0.1093E+00  0.8343E-01
      7.690  0.0000E+00  0.3567E-01  0.1093E+00  0.8718E-01
      7.795  0.2347E-17  0.4429E-01  0.1093E+00  0.9184E-01
      7.900  0.9176E-09  0.6436E-01  0.1093E+00  0.9860E-01
      8.005  0.8851E-04  0.1985E-01  0.1093E+00  0.1007E+00
      8.110  0.1186E-01  0.1100E-01  0.1106E+00  0.1018E+00
      8.215  0.1267E-01  0.6591E-02  0.1119E+00  0.1025E+00
      8.320  0.5572E-04  0.1191E-01  0.1119E+00  0.1038E+00
      8.426  0.8692E-10  0.2121E-01  0.1119E+00  0.1060E+00
      8.531  0.6542E-11  0.1569E-01  0.1119E+00  0.1077E+00
      8.636  0.7368E-05  0.4998E-02  0.1119E+00  0.1082E+00
      8.741  0.2599E-02  0.6624E-05  0.1122E+00  0.1082E+00
      8.846  0.2817E-02  0.7569E-03  0.1125E+00  0.1083E+00
      8.951  0.2282E-02  0.9120E-02  0.1127E+00  0.1092E+00
      9.056  0.2225E-03  0.6941E-03  0.1127E+00  0.1093E+00
      9.161  0.3945E-04  0.3912E-07  0.1127E+00  0.1093E+00
      9.266  0.3687E-02  0.4765E-15  0.1131E+00  0.1093E+00
      9.372  0.3362E-02  0.6537E-15  0.1135E+00  0.1093E+00
      9.477  0.8540E-02  0.6202E-07  0.1144E+00  0.1093E+00
      9.582  0.2287E-03  0.1263E-02  0.1144E+00  0.1094E+00
      9.687  0.3125E-08  0.1983E-01  0.1144E+00  0.1115E+00
      9.792  0.3650E-15  0.3562E-02  0.1144E+00  0.1119E+00
      9.897  0.3274E-07  0.1586E-03  0.1144E+00  0.1119E+00
     10.002  0.6844E-03  0.4384E-02  0.1145E+00  0.1124E+00
     10.107  0.1564E-01  0.7545E-03  0.1161E+00  0.1125E+00
     10.212  0.4812E-02  0.1329E-02  0.1166E+00  0.1126E+00
     10.317  0.1479E-04  0.1428E-02  0.1166E+00  0.1127E+00
     10.423  0.4621E-02  0.4300E-02  0.1171E+00  0.1132E+00
     10.528  0.5915E-02  0.8686E-03  0.1177E+00  0.1133E+00
     10.633  0.2563E-04  0.1978E-02  0.1177E+00  0.1135E+00
     10.738  0.3727E-10  0.8396E-02  0.1177E+00  0.1144E+00
     10.843  0.0000E+00  0.1961E-03  0.1177E+00  0.1144E+00
     10.948  0.0000E+00  0.2246E-08  0.1177E+00  0.1144E+00
     11.053  0.0000E+00  0.1467E-16  0.1177E+00  0.1144E+00
     11.158  0.0000E+00  0.3822E-08  0.1177E+00  0.1144E+00
     11.263  0.1756E-13  0.3302E-03  0.1177E+00  0.1144E+00
     11.369  0.2625E-06  0.1616E-01  0.1177E+00  0.1161E+00
     11.474  0.9457E-03  0.4700E-02  0.1178E+00  0.1166E+00
     11.579  0.4234E-02  0.6860E-02  0.1183E+00  0.1173E+00
     11.684  0.1058E-03  0.3656E-02  0.1183E+00  0.1177E+00
     11.789  0.1321E-08  0.3997E-05  0.1183E+00  0.1177E+00
     11.894  0.3521E-17  0.1205E-11  0.1183E+00  0.1177E+00
     11.999  0.0000E+00  0.0000E+00  0.1183E+00  0.1177E+00
     12.104  0.0000E+00  0.0000E+00  0.1183E+00  0.1177E+00
     12.209  0.0000E+00  0.0000E+00  0.1183E+00  0.1177E+00
     12.315  0.0000E+00  0.1167E-09  0.1183E+00  0.1177E+00
     12.420  0.0000E+00  0.3278E-04  0.1183E+00  0.1177E+00
     12.525  0.3912E-18  0.3570E-02  0.1183E+00  0.1181E+00
     12.630  0.3888E-09  0.1681E-02  0.1183E+00  0.1183E+00
     12.735  0.6870E-04  0.1507E-05  0.1183E+00  0.1183E+00
     12.840  0.5132E-02  0.3644E-12  0.1188E+00  0.1183E+00
     12.945  0.2395E-02  0.0000E+00  0.1191E+00  0.1183E+00
     13.050  0.2107E-02  0.0000E+00  0.1193E+00  0.1183E+00
     13.155  0.3908E-02  0.0000E+00  0.1197E+00  0.1183E+00
     13.260  0.1364E-02  0.0000E+00  0.1199E+00  0.1183E+00
     13.366  0.2362E-03  0.2136E-14  0.1199E+00  0.1183E+00
     13.471  0.3225E-02  0.5669E-07  0.1202E+00  0.1183E+00
     13.576  0.6033E-02  0.3480E-03  0.1209E+00  0.1183E+00
     13.681  0.9202E-02  0.2211E-02  0.1218E+00  0.1186E+00
     13.786  0.5077E-02  0.1017E-02  0.1224E+00  0.1187E+00
     13.891  0.3751E-03  0.9759E-02  0.1224E+00  0.1197E+00
     13.996  0.5655E-02  0.1640E-02  0.1230E+00  0.1199E+00
     14.101  0.6139E-02  0.8438E-06  0.1236E+00  0.1199E+00
     14.206  0.1766E-03  0.1297E-12  0.1237E+00  0.1199E+00
     14.312  0.2869E-08  0.0000E+00  0.1237E+00  0.1199E+00
     14.417  0.8911E-07  0.1467E-18  0.1237E+00  0.1199E+00
     14.522  0.6354E-03  0.1971E-09  0.1237E+00  0.1199E+00
     14.627  0.4797E-02  0.4228E-04  0.1242E+00  0.1199E+00
     14.732  0.2408E-02  0.5889E-02  0.1245E+00  0.1205E+00
     14.837  0.8786E-04  0.1811E-01  0.1245E+00  0.1224E+00
     14.942  0.3526E-04  0.8376E-02  0.1245E+00  0.1233E+00
     15.047  0.6335E-02  0.3667E-02  0.1252E+00  0.1237E+00
     15.152  0.4198E-02  0.3498E-04  0.1256E+00  0.1237E+00
     15.258  0.5437E-02  0.7001E-03  0.1262E+00  0.1237E+00
     15.363  0.1549E-01  0.4419E-02  0.1278E+00  0.1242E+00
     15.468  0.4389E-03  0.8627E-03  0.1278E+00  0.1243E+00
     15.573  0.3039E-02  0.1921E-02  0.1282E+00  0.1245E+00
     15.678  0.5994E-03  0.2548E-04  0.1282E+00  0.1245E+00
     15.783  0.1032E-01  0.1425E-09  0.1293E+00  0.1245E+00
     15.888  0.3455E-02  0.5384E-10  0.1297E+00  0.1245E+00
     15.993  0.1041E-02  0.3105E-04  0.1298E+00  0.1245E+00
     16.098  0.1581E-02  0.6179E-02  0.1300E+00  0.1251E+00
     16.203  0.1807E-01  0.6802E-02  0.1319E+00  0.1259E+00
     16.309  0.1748E-02  0.1889E-01  0.1320E+00  0.1278E+00
     16.414  0.1686E-06  0.7134E-02  0.1320E+00  0.1286E+00
     16.519  0.4215E-14  0.1254E-02  0.1320E+00  0.1287E+00
     16.624  0.5868E-18  0.8443E-02  0.1320E+00  0.1296E+00
     16.729  0.6912E-09  0.1922E-02  0.1320E+00  0.1298E+00
     16.834  0.1119E-03  0.6100E-06  0.1320E+00  0.1298E+00
     16.939  0.7865E-02  0.9461E-03  0.1329E+00  0.1299E+00
     17.044  0.7629E-02  0.1697E-01  0.1337E+00  0.1317E+00
     17.149  0.1027E-01  0.3222E-02  0.1348E+00  0.1320E+00
     17.255  0.5516E-03  0.7569E-05  0.1348E+00  0.1320E+00
     17.360  0.2261E-07  0.2492E-02  0.1348E+00  0.1323E+00
     17.465  0.1972E-15  0.2778E-02  0.1348E+00  0.1326E+00
     17.570  0.0000E+00  0.3780E-03  0.1348E+00  0.1326E+00
     17.675  0.1263E-13  0.8926E-02  0.1348E+00  0.1336E+00
     17.780  0.2161E-06  0.7229E-02  0.1348E+00  0.1343E+00
     17.885  0.8823E-03  0.4610E-02  0.1349E+00  0.1348E+00
     17.990  0.4302E-02  0.9192E-05  0.1354E+00  0.1348E+00
     18.095  0.7494E-02  0.5877E-11  0.1361E+00  0.1348E+00
     18.201  0.1290E-01  0.1639E-05  0.1375E+00  0.1348E+00
     18.306  0.8665E-03  0.1724E-02  0.1376E+00  0.1350E+00
     18.411  0.5013E-02  0.3529E-02  0.1381E+00  0.1354E+00
     18.516  0.5526E-02  0.3074E-04  0.1387E+00  0.1354E+00
     18.621  0.1903E-04  0.7466E-06  0.1387E+00  0.1354E+00
     18.726  0.1501E-04  0.2453E-02  0.1387E+00  0.1356E+00
     18.831  0.8119E-02  0.1289E-01  0.1396E+00  0.1370E+00
     18.936  0.1291E-01  0.4485E-02  0.1409E+00  0.1375E+00
     19.041  0.1018E-03  0.1316E-02  0.1409E+00  0.1376E+00
     19.146  0.2640E-02  0.3612E-02  0.1412E+00  0.1380E+00
     19.252  0.4376E-02  0.6902E-02  0.1417E+00  0.1387E+00
     19.357  0.2799E-04  0.5441E-04  0.1417E+00  0.1387E+00
     19.462  0.8591E-08  0.5560E-06  0.1417E+00  0.1387E+00
     19.567  0.3744E-03  0.2888E-02  0.1417E+00  0.1390E+00
     19.672  0.1192E-01  0.1759E-01  0.1430E+00  0.1409E+00
     19.777  0.3555E-02  0.4617E-02  0.1433E+00  0.1413E+00
     19.882  0.4253E-05  0.3086E-02  0.1433E+00  0.1417E+00
     19.987  0.2173E-11  0.6221E-05  0.1433E+00  0.1417E+00
     20.092  0.8787E-12  0.8237E-04  0.1433E+00  0.1417E+00
     20.198  0.3352E-05  0.4886E-02  0.1433E+00  0.1422E+00
     20.303  0.3807E-02  0.1021E-01  0.1437E+00  0.1433E+00
     20.408  0.2353E-01  0.6771E-03  0.1462E+00  0.1433E+00
     20.513  0.4373E-02  0.3682E-07  0.1467E+00  0.1433E+00
     20.618  0.1530E-05  0.7661E-10  0.1467E+00  0.1433E+00
     20.723  0.1334E-12  0.3725E-04  0.1467E+00  0.1433E+00
     20.828  0.0000E+00  0.6569E-02  0.1467E+00  0.1440E+00
     20.933  0.0000E+00  0.1894E-01  0.1467E+00  0.1460E+00
     21.038  0.0000E+00  0.6164E-02  0.1467E+00  0.1467E+00
     21.144  0.0000E+00  0.4528E-05  0.1467E+00  0.1467E+00
     21.249  0.0000E+00  0.8786E-12  0.1467E+00  0.1467E+00
     21.354  0.0000E+00  0.0000E+00  0.1467E+00  0.1467E+00
     21.459  0.8196E-15  0.0000E+00  0.1467E+00  0.1467E+00
     21.564  0.2056E-07  0.0000E+00  0.1467E+00  0.1467E+00
     21.669  0.1197E-03  0.0000E+00  0.1467E+00  0.1467E+00
     21.774  0.7862E-03  0.0000E+00  0.1468E+00  0.1467E+00
     21.879  0.5296E-02  0.0000E+00  0.1473E+00  0.1467E+00
     21.984  0.1031E-01  0.1152E-10  0.1484E+00  0.1467E+00
     22.090  0.9022E-02  0.9954E-05  0.1494E+00  0.1467E+00
     22.195  0.7020E-02  0.2792E-02  0.1501E+00  0.1470E+00
     22.300  0.2672E-02  0.2477E-02  0.1504E+00  0.1472E+00
     22.405  0.3255E-03  0.1731E-04  0.1504E+00  0.1472E+00
     22.510  0.2230E-02  0.4856E-02  0.1506E+00  0.1477E+00
     22.615  0.9643E-04  0.6635E-02  0.1506E+00  0.1484E+00
     22.720  0.1534E-02  0.1329E-01  0.1508E+00  0.1498E+00
     22.825  0.3820E-02  0.3450E-02  0.1512E+00  0.1502E+00
     22.930  0.8202E-02  0.1696E-02  0.1521E+00  0.1504E+00
     23.035  0.1161E-01  0.1232E-04  0.1533E+00  0.1504E+00
     23.141  0.1776E-02  0.3764E-05  0.1535E+00  0.1504E+00
     23.246  0.4527E-02  0.4161E-02  0.1540E+00  0.1508E+00
     23.351  0.3602E-02  0.8964E-02  0.1543E+00  0.1518E+00
     23.456  0.8249E-02  0.1565E-02  0.1552E+00  0.1519E+00
     23.561  0.1603E-02  0.1305E-01  0.1554E+00  0.1533E+00
     23.666  0.3540E-02  0.1391E-02  0.1557E+00  0.1534E+00
     23.771  0.1174E-01  0.3971E-02  0.1570E+00  0.1538E+00
     23.876  0.5789E-03  0.1271E-02  0.1570E+00  0.1540E+00
     23.981  0.5066E-07  0.5597E-02  0.1570E+00  0.1546E+00
     24.087  0.1115E-14  0.6011E-02  0.1570E+00  0.1552E+00
     24.192  0.6832E-11  0.6483E-02  0.1570E+00  0.1559E+00
     24.297  0.5446E-05  0.1058E-01  0.1570E+00  0.1570E+00
     24.402  0.1492E-02  0.1360E-02  0.1572E+00  0.1571E+00
     24.507  0.8607E-02  0.1652E-02  0.1581E+00  0.1573E+00
     24.612  0.5614E-02  0.2412E-02  0.1587E+00  0.1576E+00
     24.717  0.1383E-03  0.8031E-02  0.1587E+00  0.1584E+00
     24.822  0.5420E-08  0.1379E-03  0.1587E+00  0.1584E+00
     24.927  0.4577E-16  0.1141E-08  0.1587E+00  0.1584E+00
     25.033  0.0000E+00  0.1862E-04  0.1587E+00  0.1584E+00
     25.138  0.0000E+00  0.1825E-02  0.1587E+00  0.1586E+00
     25.243  0.0000E+00  0.7982E-03  0.1587E+00  0.1587E+00
     25.348  0.3673E-15  0.6363E-06  0.1587E+00  0.1587E+00
     25.453  0.2619E-07  0.1350E-12  0.1587E+00  0.1587E+00
     25.558  0.4778E-03  0.0000E+00  0.1588E+00  0.1587E+00
     25.663  0.9903E-02  0.6846E-16  0.1598E+00  0.1587E+00
     25.768  0.1951E-02  0.1003E-07  0.1600E+00  0.1587E+00
     25.873  0.7333E-06  0.3083E-03  0.1600E+00  0.1587E+00
     25.978  0.7977E-13  0.6013E-02  0.1600E+00  0.1594E+00
     26.084  0.0000E+00  0.1465E-02  0.1600E+00  0.1595E+00
     26.189  0.0000E+00  0.4392E-02  0.1600E+00  0.1600E+00
     26.294  0.0000E+00  0.1546E-03  0.1600E+00  0.1600E+00
     26.399  0.0000E+00  0.3029E-08  0.1600E+00  0.1600E+00
     26.504  0.0000E+00  0.1174E-16  0.1600E+00  0.1600E+00
     26.609  0.0000E+00  0.0000E+00  0.1600E+00  0.1600E+00
     26.714  0.0000E+00  0.0000E+00  0.1600E+00  0.1600E+00
     26.819  0.0000E+00  0.0000E+00  0.1600E+00  0.1600E+00
     26.924  0.0000E+00  0.0000E+00  0.1600E+00  0.1600E+00
     27.030  0.0000E+00  0.0000E+00  0.1600E+00  0.1600E+00
     27.135  0.0000E+00  0.0000E+00  0.1600E+00  0.1600E+00
     27.240  0.0000E+00  0.0000E+00  0.1600E+00  0.1600E+00
     27.345  0.0000E+00  0.0000E+00  0.1600E+00  0.1600E+00
     27.450  0.0000E+00  0.0000E+00  0.1600E+00  0.1600E+00
     27.555  0.0000E+00  0.0000E+00  0.1600E+00  0.1600E+00
     27.55507927     -3.97709923  301      5.98840242      1.00000000
     -3.977  0.0000E+00  0.0000E+00  0.0000E+00  0.0000E+00  0.0000E+00  0.0000E+00  0.0000E+00  0.0000E+00  0.0000E+00  0.0000E+00  0.0000E+00  0.0000E+00  0.0000E+00  0.0000E+00  0.0000E+00  0.0000E+00  0.0000E+00  0.0000E+00
     -3.872  0.0000E+00  0.0000E+00  0.0000E+00  0.0000E+00  0.0000E+00  0.0000E+00  0.0000E+00  0.0000E+00  0.0000E+00  0.0000E+00  0.0000E+00  0.0000E+00  0.0000E+00  0.0000E+00  0.0000E+00  0.0000E+00  0.0000E+00  0.0000E+00
     -3.767  0.0000E+00  0.0000E+00  0.0000E+00  0.0000E+00  0.0000E+00  0.0000E+00  0.0000E+00  0.0000E+00  0.0000E+00  0.0000E+00  0.0000E+00  0.0000E+00  0.0000E+00  0.0000E+00  0.0000E+00  0.0000E+00  0.0000E+00  0.0000E+00
     -3.662  0.0000E+00  0.0000E+00  0.0000E+00  0.0000E+00  0.0000E+00  0.0000E+00  0.0000E+00  0.0000E+00  0.0000E+00  0.0000E+00  0.0000E+00  0.0000E+00  0.0000E+00  0.0000E+00  0.0000E+00  0.0000E+00  0.0000E+00  0.0000E+00
     -3.557  0.0000E+00  0.0000E+00  0.0000E+00  0.0000E+00  0.0000E+00  0.0000E+00  0.0000E+00  0.0000E+00  0.0000E+00  0.0000E+00  0.0000E+00  0.0000E+00  0.0000E+00  0.0000E+00  0.0000E+00  0.0000E+00  0.0000E+00  0.0000E+00
     -3.452  0.0000E+00  0.0000E+00  0.0000E+00  0.0000E+00  0.0000E+00  0.0000E+00  0.0000E+00  0.0000E+00  0.0000E+00  0.0000E+00  0.0000E+00  0.0000E+00  0.0000E+00  0.0000E+00  0.0000E+00  0.0000E+00  0.0000E+00  0.0000E+00
     -3.346  0.0000E+00  0.0000E+00  0.0000E+00  0.0000E+00  0.0000E+00  0.0000E+00  0.0000E+00  0.0000E+00  0.0000E+00  0.0000E+00  0.0000E+00  0.0000E+00  0.0000E+00  0.0000E+00  0.0000E+00  0.0000E+00  0.0000E+00  0.0000E+00
     -3.241  0.0000E+00  0.0000E+00  0.0000E+00  0.0000E+00  0.0000E+00  0.0000E+00  0.0000E+00  0.0000E+00  0.0000E+00  0.0000E+00  0.0000E+00  0.0000E+00  0.0000E+00  0.0000E+00  0.0000E+00  0.0000E+00  0.0000E+00  0.0000E+00
     -3.136  0.0000E+00  0.0000E+00  0.0000E+00  0.0000E+00  0.0000E+00  0.0000E+00  0.0000E+00  0.0000E+00  0.0000E+00  0.0000E+00  0.0000E+00  0.0000E+00  0.0000E+00  0.0000E+00  0.0000E+00  0.0000E+00  0.0000E+00  0.0000E+00
     -3.031  0.0000E+00  0.0000E+00  0.0000E+00  0.0000E+00  0.0000E+00  0.0000E+00  0.0000E+00  0.0000E+00  0.0000E+00  0.0000E+00  0.0000E+00  0.0000E+00  0.0000E+00  0.0000E+00  0.0000E+00  0.0000E+00  0.0000E+00  0.0000E+00
     -2.926  0.0000E+00  0.0000E+00  0.0000E+00  0.0000E+00  0.0000E+00  0.0000E+00  0.0000E+00  0.0000E+00  0.0000E+00  0.0000E+00  0.0000E+00  0.0000E+00  0.0000E+00  0.0000E+00  0.0000E+00  0.0000E+00  0.0000E+00  0.0000E+00
     -2.821  0.3710E-16  0.0000E+00  0.5598E-45  0.0000E+00  0.5598E-45  0.0000E+00  0.5598E-45  0.0000E+00  0.5537E-28  0.0000E+00  0.5537E-28  0.0000E+00  0.7193E-32  0.0000E+00  0.5537E-28  0.0000E+00  0.7193E-32  0.0000E+00
     -2.716  0.9341E-08  0.0000E+00  0.1410E-36  0.0000E+00  0.1410E-36  0.0000E+00  0.1410E-36  0.0000E+00  0.1394E-19  0.0000E+00  0.1394E-19  0.0000E+00  0.1811E-23  0.0000E+00  0.1394E-19  0.0000E+00  0.1811E-23  0.0000E+00
     -2.611  0.4769E-03  0.4796E-09  0.7196E-32  0.7135E-38  0.7196E-32  0.7135E-38  0.7196E-32  0.7135E-38  0.7118E-15  0.2063E-22  0.7118E-15  0.2063E-22  0.9247E-19  0.8876E-22  0.7118E-15  0.2063E-22  0.9247E-19  0.8876E-22
     -2.506  0.1354E-01  0.1166E-03  0.2044E-30  0.1735E-32  0.2044E-30  0.1735E-32  0.2044E-30  0.1735E-32  0.2022E-13  0.5016E-17  0.2022E-13  0.5016E-17  0.2626E-17  0.2158E-16  0.2022E-13  0.5016E-17  0.2626E-17  0.2158E-16
     -2.400  0.2279E-02  0.1129E-01  0.3439E-31  0.1679E-30  0.3439E-31  0.1679E-30  0.3439E-31  0.1679E-30  0.3402E-14  0.4854E-15  0.3402E-14  0.4854E-15  0.4419E-18  0.2089E-14  0.3402E-14  0.4854E-15  0.4419E-18  0.2089E-14
     -2.295  0.4105E-06  0.4890E-02  0.6194E-35  0.7275E-31  0.6194E-35  0.7275E-31  0.6194E-35  0.7275E-31  0.6127E-18  0.2103E-15  0.6127E-18  0.2103E-15  0.7959E-22  0.9050E-15  0.6127E-18  0.2103E-15  0.7959E-22  0.9050E-15
     -2.190  0.3060E-10  0.3842E-05  0.5954E-12  0.0000E+00  0.5954E-12  0.0000E+00  0.5954E-12  0.0000E+00  0.2570E-25  0.1653E-18  0.2570E-25  0.1653E-18  0.4521E-13  0.7111E-18  0.2570E-25  0.1653E-18  0.4521E-13  0.7111E-18
     -2.085  0.6300E-04  0.1145E-11  0.1227E-05  0.6697E-14  0.1227E-05  0.6697E-14  0.1227E-05  0.6697E-14  0.2814E-33  0.3451E-25  0.2814E-33  0.3451E-25  0.9314E-07  0.3482E-15  0.2814E-33  0.3451E-25  0.9314E-07  0.3482E-15
     -1.980  0.3772E-01  0.4889E-05  0.7343E-03  0.9565E-07  0.7343E-03  0.9565E-07  0.7343E-03  0.9565E-07  0.1685E-30  0.2016E-34  0.1685E-30  0.2016E-34  0.5576E-04  0.4973E-08  0.1685E-30  0.2016E-34  0.5576E-04  0.4973E-08
     -1.875  0.5421E-01  0.1689E-01  0.1055E-02  0.3304E-03  0.1055E-02  0.3304E-03  0.1055E-02  0.3304E-03  0.2421E-30  0.6961E-31  0.2421E-30  0.6961E-31  0.8013E-04  0.1718E-04  0.2421E-30  0.6961E-31  0.8013E-04  0.1718E-04
     -1.770  0.2800E-03  0.7357E-01  0.5452E-05  0.1439E-02  0.5452E-05  0.1439E-02  0.5452E-05  0.1439E-02  0.1251E-32  0.3033E-30  0.1251E-32  0.3033E-30  0.4140E-06  0.7483E-04  0.1251E-32  0.3033E-30  0.4140E-06  0.7483E-04
     -1.665  0.5055E-09  0.1776E-02  0.9934E-11  0.3475E-04  0.9934E-11  0.3475E-04  0.9934E-11  0.3475E-04  0.2433E-13  0.0000E+00  0.2433E-13  0.0000E+00  0.7506E-12  0.1807E-05  0.2433E-13  0.0000E+00  0.7506E-12  0.1807E-05
     -1.560  0.2981E-04  0.2122E-07  0.1140E-05  0.4151E-09  0.1140E-05  0.4151E-09  0.1140E-05  0.4151E-09  0.1480E-06  0.1547E-16  0.1480E-06  0.1547E-16  0.6402E-07  0.2158E-10  0.1480E-06  0.1547E-16  0.6402E-07  0.2158E-10
     -1.455  0.4711E-01  0.4661E-06  0.1801E-02  0.1814E-07  0.1801E-02  0.1814E-07  0.1801E-02  0.1814E-07  0.2339E-03  0.1549E-08  0.2339E-03  0.1549E-08  0.1012E-03  0.6266E-09  0.2339E-03  0.1549E-08  0.1012E-03  0.6266E-09
     -1.349  0.1246E+00  0.9965E-02  0.4765E-02  0.3878E-03  0.4765E-02  0.3878E-03  0.4765E-02  0.3878E-03  0.6187E-03  0.3311E-04  0.6187E-03  0.3311E-04  0.2676E-03  0.1340E-04  0.6187E-03  0.3311E-04  0.2676E-03  0.1340E-04
     -1.244  0.1558E-02  0.1495E+00  0.5957E-04  0.5818E-02  0.5957E-04  0.5818E-02  0.5957E-04  0.5818E-02  0.7735E-05  0.4968E-03  0.7735E-05  0.4968E-03  0.3346E-05  0.2010E-03  0.7735E-05  0.4968E-03  0.3346E-05  0.2010E-03
     -1.139  0.8109E-08  0.1412E-01  0.3102E-09  0.5496E-03  0.3102E-09  0.5496E-03  0.3102E-09  0.5496E-03  0.4032E-10  0.4693E-04  0.4032E-10  0.4693E-04  0.1740E-10  0.1899E-04  0.4032E-10  0.4693E-04  0.1740E-10  0.1899E-04
     -1.034  0.3105E-04  0.1084E-05  0.1813E-05  0.4219E-07  0.1813E-05  0.4219E-07  0.1813E-05  0.4219E-07  0.4004E-06  0.3602E-08  0.4004E-06  0.3602E-08  0.1280E-19  0.1457E-08  0.4004E-06  0.3602E-08  0.1280E-19  0.1457E-08
     -0.929  0.3451E-01  0.1255E-06  0.2015E-02  0.7484E-08  0.2015E-02  0.7484E-08  0.2015E-02  0.7484E-08  0.4449E-03  0.1119E-08  0.4449E-03  0.1119E-08  0.1422E-16  0.2466E-16  0.4449E-03  0.1119E-08  0.1422E-16  0.2466E-16
     -0.824  0.7313E-01  0.4339E-02  0.4270E-02  0.2588E-03  0.4270E-02  0.2588E-03  0.4270E-02  0.2588E-03  0.9430E-03  0.3869E-04  0.9430E-03  0.3869E-04  0.3014E-16  0.1439E-14  0.9430E-03  0.3869E-04  0.3014E-16  0.1439E-14
     -0.719  0.6693E-03  0.9225E-01  0.3908E-04  0.5503E-02  0.3908E-04  0.5503E-02  0.3908E-04  0.5503E-02  0.8630E-05  0.8226E-03  0.8630E-05  0.8226E-03  0.9084E-18  0.3060E-13  0.8630E-05  0.8226E-03  0.9084E-18  0.3060E-13
     -0.614  0.1172E-07  0.1205E-01  0.9399E-09  0.7190E-03  0.9399E-09  0.7190E-03  0.9399E-09  0.7190E-03  0.3061E-10  0.1075E-03  0.3061E-10  0.1075E-03  0.3596E-09  0.3998E-14  0.3061E-10  0.1075E-03  0.3596E-09  0.3998E-14
     -0.509  0.1075E-02  0.1486E-05  0.9216E-04  0.8866E-07  0.9216E-04  0.8866E-07  0.9216E-04  0.8866E-07  0.0000E+00  0.1325E-07  0.0000E+00  0.1325E-07  0.4136E-04  0.2739E-15  0.0000E+00  0.1325E-07  0.4136E-04  0.2739E-15
     -0.403  0.5709E-01  0.5982E-06  0.4892E-02  0.5155E-07  0.4892E-02  0.5155E-07  0.4892E-02  0.5155E-07  0.2145E-29  0.3706E-15  0.2046E-29  0.3706E-15  0.2196E-02  0.1389E-07  0.2046E-29  0.3706E-15  0.2196E-02  0.1389E-07
     -0.298  0.1590E-01  0.6744E-02  0.1363E-02  0.5812E-03  0.1363E-02  0.5812E-03  0.1363E-02  0.5812E-03  0.8456E-15  0.1972E-30  0.8456E-15  0.4930E-31  0.6117E-03  0.1566E-03  0.8456E-15  0.1479E-30  0.6117E-03  0.1566E-03
     -0.193  0.7680E-05  0.6461E-01  0.6740E-06  0.5568E-02  0.6740E-06  0.5568E-02  0.6740E-06  0.5568E-02  0.5488E-07  0.0000E+00  0.5488E-07  0.0000E+00  0.3034E-06  0.1500E-02  0.5488E-07  0.0000E+00  0.3034E-06  0.1500E-02
     -0.088  0.2067E-01  0.3879E-02  0.1997E-02  0.3343E-03  0.1997E-02  0.3343E-03  0.1997E-02  0.3343E-03  0.7791E-03  0.1897E-17  0.7791E-03  0.2060E-17  0.9091E-03  0.9007E-04  0.7791E-03  0.2060E-17  0.9091E-03  0.9007E-04
      0.017  0.2323E+00  0.2052E-06  0.2244E-01  0.1842E-07  0.2244E-01  0.1842E-07  0.2244E-01  0.1842E-07  0.8756E-02  0.1036E-08  0.8756E-02  0.1036E-08  0.1022E-01  0.4804E-08  0.8756E-02  0.1036E-08  0.1022E-01  0.4804E-08
      0.122  0.1647E-01  0.4713E-02  0.1591E-02  0.4784E-03  0.1591E-02  0.4784E-03  0.1591E-02  0.4784E-03  0.6207E-03  0.1009E-03  0.6207E-03  0.1009E-03  0.7243E-03  0.1133E-03  0.6207E-03  0.1009E-03  0.7243E-03  0.1133E-03
      0.227  0.1208E-05  0.2196E+00  0.1244E-06  0.2229E-01  0.1244E-06  0.2229E-01  0.1244E-06  0.2229E-01  0.5759E-07  0.4702E-02  0.5759E-07  0.4702E-02  0.4993E-07  0.5280E-02  0.5759E-07  0.4702E-02  0.4993E-07  0.5280E-02
      0.332  0.1104E-01  0.5530E-01  0.1300E-02  0.5614E-02  0.1300E-02  0.5614E-02  0.1300E-02  0.5614E-02  0.7790E-03  0.1184E-02  0.7790E-03  0.1184E-02  0.3900E-03  0.1330E-02  0.7790E-03  0.1184E-02  0.3900E-03  0.1330E-02
      0.437  0.2117E+00  0.1849E-04  0.2492E-01  0.1877E-05  0.2492E-01  0.1877E-05  0.2492E-01  0.1877E-05  0.1494E-01  0.3959E-06  0.1494E-01  0.3959E-06  0.7478E-02  0.4445E-06  0.1494E-01  0.3959E-06  0.7478E-02  0.4445E-06
      0.543  0.2518E-01  0.1578E-03  0.2965E-02  0.1969E-04  0.2965E-02  0.1969E-04  0.2965E-02  0.1969E-04  0.1777E-02  0.6528E-05  0.1777E-02  0.6528E-05  0.8898E-03  0.2929E-05  0.1777E-02  0.6528E-05  0.8898E-03  0.2929E-05
      0.648  0.8729E-02  0.1027E+00  0.8356E-03  0.1282E-01  0.8356E-03  0.1282E-01  0.8356E-03  0.1282E-01  0.2399E-02  0.4250E-02  0.2399E-02  0.4250E-02  0.1644E-02  0.1907E-02  0.2399E-02  0.4250E-02  0.1644E-02  0.1907E-02
      0.753  0.7409E-01  0.1556E+00  0.7092E-02  0.1943E-01  0.7092E-02  0.1943E-01  0.7092E-02  0.1943E-01  0.2037E-01  0.6440E-02  0.2037E-01  0.6440E-02  0.1396E-01  0.2889E-02  0.2037E-01  0.6440E-02  0.1396E-01  0.2889E-02
      0.858  0.3909E-02  0.8706E-03  0.3739E-03  0.1087E-03  0.3739E-03  0.1087E-03  0.3739E-03  0.1087E-03  0.1076E-02  0.3603E-04  0.1076E-02  0.3603E-04  0.7379E-03  0.1616E-04  0.1076E-02  0.3603E-04  0.7379E-03  0.1616E-04
      0.963  0.4217E-02  0.1710E-08  0.1311E-07  0.2135E-09  0.1311E-07  0.2135E-09  0.1311E-07  0.2135E-09  0.4786E-02  0.7077E-10  0.4786E-02  0.7077E-10  0.4445E-02  0.3175E-10  0.4786E-02  0.7077E-10  0.4445E-02  0.3175E-10
      1.068  0.1482E-01  0.5141E-08  0.1062E-03  0.6417E-09  0.1062E-03  0.6417E-09  0.1062E-03  0.6417E-09  0.1632E-01  0.7566E-09  0.1632E-01  0.7566E-09  0.2751E-01  0.4101E-09  0.1632E-01  0.7566E-09  0.2751E-01  0.4101E-09
      1.173  0.1447E+00  0.9642E-03  0.1612E-01  0.1203E-03  0.1612E-01  0.1203E-03  0.1612E-01  0.1203E-03  0.8128E-01  0.1419E-03  0.8128E-01  0.1419E-03  0.7544E-01  0.7690E-04  0.8128E-01  0.1419E-03  0.7544E-01  0.7690E-04
      1.278  0.1188E+00  0.7557E-01  0.1852E-01  0.9432E-02  0.1852E-01  0.9432E-02  0.1852E-01  0.9432E-02  0.4281E-01  0.1112E-01  0.4281E-01  0.1112E-01  0.7738E-01  0.6027E-02  0.4281E-01  0.1112E-01  0.7738E-01  0.6027E-02