unknown system                          
           1
     2.863036    0.000000    0.000000
     0.000000    2.863036    0.000000
     0.000000    0.000000    2.863036
   Fe
     2
Direct configuration=     1
   0.00000000  0.00000000  0.00000000
   0.50000000  0.50000000  0.50000000
unknown system                          
           1
     2.795305   -0.000000   -0.000000
    -0.000000    2.795305   -0.000000
     0.000000   -0.000000    2.795305
   Fe
     2
Direct configuration=     2
   0.00000000  0.00000000  0.00000000
   0.50000000  0.50000000  0.50000000
unknown system                          
           1
     2.820415   -0.000000   -0.000000
    -0.000000    2.820415   -0.000000
     0.000000   -0.000000    2.820415
   Fe
     2
Direct configuration=     3
   0.00000000  0.00000000  0.00000000
   0.50000000  0.50000000  0.50000000
unknown system                          
           1
     2.824651   -0.000000   -0.000000
    -0.000000    2.824651   -0.000000
     0.000000   -0.000000    2.824651
   Fe
     2
Direct configuration=     4
   0.00000000  0.00000000  0.00000000
   0.50000000  0.50000000  0.50000000
unknown system                          
           1
     2.822697   -0.000000   -0.000000
    -0.000000    2.822697   -0.000000
     0.000000   -0.000000    2.822697
   Fe
     2
Direct configuration=     5
   0.00000000  0.00000000  0.00000000
   0.50000000  0.50000000  0.50000000
